 Entering Gaussian System, Link 0=g16
 Initial command:
 /opt/g16/l1.exe "/scratch/1455/Gau-407618.inp" -scrdir="/scratch/1455/"
 Entering Link 1 = /opt/g16/l1.exe PID=    407620.
  
 Copyright (c) 1988-2017, Gaussian, Inc.  All Rights Reserved.
  
 This is part of the Gaussian(R) 16 program.  It is based on
 the Gaussian(R) 09 system (copyright 2009, Gaussian, Inc.),
 the Gaussian(R) 03 system (copyright 2003, Gaussian, Inc.),
 the Gaussian(R) 98 system (copyright 1998, Gaussian, Inc.),
 the Gaussian(R) 94 system (copyright 1995, Gaussian, Inc.),
 the Gaussian 92(TM) system (copyright 1992, Gaussian, Inc.),
 the Gaussian 90(TM) system (copyright 1990, Gaussian, Inc.),
 the Gaussian 88(TM) system (copyright 1988, Gaussian, Inc.),
 the Gaussian 86(TM) system (copyright 1986, Carnegie Mellon
 University), and the Gaussian 82(TM) system (copyright 1983,
 Carnegie Mellon University). Gaussian is a federally registered
 trademark of Gaussian, Inc.
  
 This software contains proprietary and confidential information,
 including trade secrets, belonging to Gaussian, Inc.
  
 This software is provided under written license and may be
 used, copied, transmitted, or stored only in accord with that
 written license.
  
 The following legend is applicable only to US Government
 contracts under FAR:
  
                    RESTRICTED RIGHTS LEGEND
  
 Use, reproduction and disclosure by the US Government is
 subject to restrictions as set forth in subparagraphs (a)
 and (c) of the Commercial Computer Software - Restricted
 Rights clause in FAR 52.227-19.
  
 Gaussian, Inc.
 340 Quinnipiac St., Bldg. 40, Wallingford CT 06492
  
  
 ---------------------------------------------------------------
 Warning -- This program may not be used in any manner that
 competes with the business of Gaussian, Inc. or will provide
 assistance to any competitor of Gaussian, Inc.  The licensee
 of this program is prohibited from giving any competitor of
 Gaussian, Inc. access to this program.  By using this program,
 the user acknowledges that Gaussian, Inc. is engaged in the
 business of creating and licensing software in the field of
 computational chemistry and represents and warrants to the
 licensee that it is not a competitor of Gaussian, Inc. and that
 it will not use this program in any manner prohibited above.
 ---------------------------------------------------------------
  

 Cite this work as:
 Gaussian 16, Revision B.01,
 M. J. Frisch, G. W. Trucks, H. B. Schlegel, G. E. Scuseria, 
 M. A. Robb, J. R. Cheeseman, G. Scalmani, V. Barone, 
 G. A. Petersson, H. Nakatsuji, X. Li, M. Caricato, A. V. Marenich, 
 J. Bloino, B. G. Janesko, R. Gomperts, B. Mennucci, H. P. Hratchian, 
 J. V. Ortiz, A. F. Izmaylov, J. L. Sonnenberg, D. Williams-Young, 
 F. Ding, F. Lipparini, F. Egidi, J. Goings, B. Peng, A. Petrone, 
 T. Henderson, D. Ranasinghe, V. G. Zakrzewski, J. Gao, N. Rega, 
 G. Zheng, W. Liang, M. Hada, M. Ehara, K. Toyota, R. Fukuda, 
 J. Hasegawa, M. Ishida, T. Nakajima, Y. Honda, O. Kitao, H. Nakai, 
 T. Vreven, K. Throssell, J. A. Montgomery, Jr., J. E. Peralta, 
 F. Ogliaro, M. J. Bearpark, J. J. Heyd, E. N. Brothers, K. N. Kudin, 
 V. N. Staroverov, T. A. Keith, R. Kobayashi, J. Normand, 
 K. Raghavachari, A. P. Rendell, J. C. Burant, S. S. Iyengar, 
 J. Tomasi, M. Cossi, J. M. Millam, M. Klene, C. Adamo, R. Cammi, 
 J. W. Ochterski, R. L. Martin, K. Morokuma, O. Farkas, 
 J. B. Foresman, and D. J. Fox, Gaussian, Inc., Wallingford CT, 2016.
 
 ******************************************
 Gaussian 16:  ES64L-G16RevB.01 20-Dec-2017
                 1-Feb-2021 
 ******************************************
 %OldChk=CrCO6_opt.chk
 %chk=CrCO6couple_N+3.chk
 %mem=32GB
 %nprocshared=16
 Will use up to   16 processors via shared memory.
 Copying data from "CrCO6_opt.chk" to current chk file "CrCO6couple_N+3.chk"
 IOpt=  2 FromEx=T IUOpen= 4 IOptOp= 5 NList=   0 IFRang= 0 IUIn= 4 IUOut= 2.
 -------------------------------------------------------------
 # UCCSD/ChkBasis NoSymm Guess=Read Geom=Check Density=Current
 -------------------------------------------------------------
 1/29=2,30=1,38=1,172=1/1;
 2/12=2,15=1,40=1/2;
 3/5=7,6=2,11=2,14=-4,25=1,30=1,67=1,71=1,116=2/1,2,3;
 4/5=1/1;
 5/5=2,38=6/2;
 8/6=4,9=120000,10=1/1,4;
 9/5=7,15=1/13;
 11/28=-8,31=1,32=3,42=3/11;
 10/5=6,13=10,31=1/2;
 6/7=2,8=2,9=2,10=2,22=-1/1;
 99/5=1,9=1/99;
 ----------------------------------------------------------------------
 Single point of Cr(CO)6^-3 at the UCCSD/GenECP/6-31+G(d) level of theo
 ry of geometrically optimized Cr(CO)6 at the CAM-B3LYP/GenECP/6-31+G(d
 ) level of theory
 ----------------------------------------------------------------------
 Structure from the checkpoint file:  "CrCO6couple_N+3.chk"
 Charge = -3 Multiplicity = 4
 Redundant internal coordinates found in file.  (old form).
 Cr,0,0.,-0.0000000032,0.
 C,0,1.913598115,-0.0000000001,-0.0000000001
 C,0,-1.913598115,-0.0000000001,0.
 C,0,0.,1.9135981151,0.0000000001
 C,0,0.,-1.9135981151,0.0000000001
 C,0,0.,-0.0000000001,1.9135981154
 C,0,0.,-0.0000000001,-1.9135981155
 O,0,3.0485736889,0.0000000023,-0.0000000002
 O,0,-3.048573689,0.0000000023,-0.0000000002
 O,0,0.,3.0485736881,0.0000000003
 O,0,0.,-3.0485736899,0.0000000003
 O,0,0.,0.0000000005,3.0485736891
 O,0,0.,0.0000000005,-3.0485736892
 Recover connectivity data from disk.
                           ----------------------------
                           !    Current Parameters    !
                           ! (Angstroms and Degrees)  !
 --------------------------                            --------------------------
 ! Name  Definition              Value                                          !
 --------------------------------------------------------------------------------
 ! R1    R(1,2)                  1.9136                                         !
 ! R2    R(1,3)                  1.9136                                         !
 ! R3    R(1,4)                  1.9136                                         !
 ! R4    R(1,5)                  1.9136                                         !
 ! R5    R(1,6)                  1.9136                                         !
 ! R6    R(1,7)                  1.9136                                         !
 ! R7    R(2,8)                  1.135                                          !
 ! R8    R(3,9)                  1.135                                          !
 ! R9    R(4,10)                 1.135                                          !
 ! R10   R(5,11)                 1.135                                          !
 ! R11   R(6,12)                 1.135                                          !
 ! R12   R(7,13)                 1.135                                          !
 ! A1    A(2,1,4)               90.0                                            !
 ! A2    A(2,1,5)               90.0                                            !
 ! A3    A(2,1,6)               90.0                                            !
 ! A4    A(2,1,7)               90.0                                            !
 ! A5    A(3,1,4)               90.0                                            !
 ! A6    A(3,1,5)               90.0                                            !
 ! A7    A(3,1,6)               90.0                                            !
 ! A8    A(3,1,7)               90.0                                            !
 ! A9    A(4,1,6)               90.0                                            !
 ! A10   A(4,1,7)               90.0                                            !
 ! A11   A(5,1,6)               90.0                                            !
 ! A12   A(5,1,7)               90.0                                            !
 ! A13   L(2,1,3,4,-1)         180.0                                            !
 ! A14   L(4,1,5,2,-1)         180.0                                            !
 ! A15   L(6,1,7,2,-1)         180.0                                            !
 ! A16   L(1,2,8,10,-1)        180.0                                            !
 ! A17   L(1,3,9,10,-1)        180.0                                            !
 ! A18   L(1,4,10,8,-1)        180.0                                            !
 ! A19   L(1,5,11,8,-1)        180.0                                            !
 ! A20   L(1,6,12,8,-1)        180.0                                            !
 ! A21   L(1,7,13,8,-1)        180.0                                            !
 ! A22   L(2,1,3,4,-2)         180.0                                            !
 ! A23   L(4,1,5,2,-2)         180.0                                            !
 ! A24   L(6,1,7,2,-2)         180.0                                            !
 ! A25   L(1,2,8,10,-2)        180.0                                            !
 ! A26   L(1,3,9,10,-2)        180.0                                            !
 ! A27   L(1,4,10,8,-2)        180.0                                            !
 ! A28   L(1,5,11,8,-2)        180.0                                            !
 ! A29   L(1,6,12,8,-2)        180.0                                            !
 ! A30   L(1,7,13,8,-2)        180.0                                            !
 ! D1    D(2,1,6,4)             90.0                                            !
 ! D2    D(2,1,7,4)            -90.0                                            !
 ! D3    D(2,1,6,5)            -90.0                                            !
 ! D4    D(2,1,7,5)             90.0                                            !
 ! D5    D(3,1,6,4)            -90.0                                            !
 ! D6    D(3,1,7,4)             90.0                                            !
 ! D7    D(3,1,6,5)             90.0                                            !
 ! D8    D(3,1,7,5)            -90.0                                            !
 --------------------------------------------------------------------------------
                          Input orientation:                          
 ---------------------------------------------------------------------
 Center     Atomic      Atomic             Coordinates (Angstroms)
 Number     Number       Type             X           Y           Z
 ---------------------------------------------------------------------
      1         24           0       -0.000000   -0.000000   -0.000000
      2          6           0        1.913598   -0.000000   -0.000000
      3          6           0       -1.913598   -0.000000   -0.000000
      4          6           0       -0.000000    1.913598    0.000000
      5          6           0        0.000000   -1.913598    0.000000
      6          6           0       -0.000000   -0.000000    1.913598
      7          6           0       -0.000000   -0.000000   -1.913598
      8          8           0        3.048574    0.000000   -0.000000
      9          8           0       -3.048574    0.000000   -0.000000
     10          8           0        0.000000    3.048574    0.000000
     11          8           0        0.000000   -3.048574    0.000000
     12          8           0        0.000000    0.000000    3.048574
     13          8           0       -0.000000    0.000000   -3.048574
 ---------------------------------------------------------------------
                    Distance matrix (angstroms):
                    1          2          3          4          5
     1  Cr   0.000000
     2  C    1.913598   0.000000
     3  C    1.913598   3.827196   0.000000
     4  C    1.913598   2.706236   2.706236   0.000000
     5  C    1.913598   2.706236   2.706236   3.827196   0.000000
     6  C    1.913598   2.706236   2.706236   2.706236   2.706236
     7  C    1.913598   2.706236   2.706236   2.706236   2.706236
     8  O    3.048574   1.134976   4.962172   3.599397   3.599397
     9  O    3.048574   4.962172   1.134976   3.599397   3.599397
    10  O    3.048574   3.599397   3.599397   1.134976   4.962172
    11  O    3.048574   3.599397   3.599397   4.962172   1.134976
    12  O    3.048574   3.599397   3.599397   3.599397   3.599397
    13  O    3.048574   3.599397   3.599397   3.599397   3.599397
                    6          7          8          9         10
     6  C    0.000000
     7  C    3.827196   0.000000
     8  O    3.599397   3.599397   0.000000
     9  O    3.599397   3.599397   6.097147   0.000000
    10  O    3.599397   3.599397   4.311334   4.311334   0.000000
    11  O    3.599397   3.599397   4.311334   4.311334   6.097147
    12  O    1.134976   4.962172   4.311334   4.311334   4.311334
    13  O    4.962172   1.134976   4.311334   4.311334   4.311334
                   11         12         13
    11  O    0.000000
    12  O    4.311334   0.000000
    13  O    4.311334   6.097147   0.000000
 Symmetry turned off by external request.
 Stoichiometry    C6CrO6(3-,4)
 Framework group  OH[O(Cr),3C4(OC.CO)]
 Deg. of freedom     2
 Full point group                 OH      NOp  48
 Rotational constants (GHZ):           0.6560097           0.6560097           0.6560097
 Basis read from chk: "CrCO6couple_N+3.chk" (5D, 7F)
 Pseudo-potential data read from chk file.
   286 basis functions,   484 primitive gaussians,   300 cartesian basis functions
    52 alpha electrons       49 beta electrons
       nuclear repulsion energy       800.7125484233 Hartrees.
 NAtoms=   13 NActive=   13 NUniq=   13 SFac= 1.00D+00 NAtFMM=   60 NAOKFM=F Big=F
 Integral buffers will be    131072 words long.
 Raffenetti 2 integral format.
 Two-electron integral symmetry is turned off.
 One-electron integrals computed using PRISM.
   1 Symmetry operations used in ECPInt.
 ECPInt:  NShTT=    3240 NPrTT=   15282 LenC2=    3061 LenP2D=    9666.
 LDataN:  DoStor=T MaxTD1= 4 Len=   56
 NBasis=   286 RedAO= T EigKep=  3.50D-06  NBF=   286
 NBsUse=   286 1.00D-06 EigRej= -1.00D+00 NBFU=   286
 Initial guess from the checkpoint file:  "CrCO6couple_N+3.chk"
 B after Tr=     0.000000    0.000000    0.000000
         Rot=    1.000000    0.000000    0.000000    0.000000 Ang=   0.00 deg.
 Initial guess <Sx>= 0.0000 <Sy>= 0.0000 <Sz>= 1.5000 <S**2>= 3.7500 S= 1.5000
 Requested convergence on RMS density matrix=1.00D-08 within 128 cycles.
 Requested convergence on MAX density matrix=1.00D-06.
 Requested convergence on             energy=1.00D-06.
 No special actions if energy rises.
 Rare condition: small coef for last iteration:  0.000D+00
 Rare condition: small coef for last iteration:  0.000D+00
 Rare condition: small coef for last iteration:  0.000D+00
 Rare condition: small coef for last iteration:  0.000D+00
 Rare condition: small coef for last iteration:  0.000D+00
 Rare condition: small coef for last iteration:  0.000D+00
 Restarting incremental Fock formation.
 SCF Done:  E(UHF) =  -761.817197155     A.U. after   35 cycles
            NFock= 35  Conv=0.67D-08     -V/T= 2.0592
 <Sx>= 0.0000 <Sy>= 0.0000 <Sz>= 1.5000 <S**2>= 3.7500 S= 1.5000
 <L.S>=  0.00000000000    
 Annihilation of the first spin contaminant:
 S**2 before annihilation     3.7500,   after     3.7500
 ExpMin= 1.90D-02 ExpMax= 8.59D+03 ExpMxC= 1.30D+03 IAcc=3 IRadAn=         5 AccDes= 0.00D+00
 HarFok:  IExCor=  205 AccDes= 0.00D+00 IRadAn=         5 IDoV=-2 UseB2=F ITyADJ=14
 ICtDFT= 12500011 ScaDFX=  1.000000  1.000000  1.000000  1.000000
 Range of M.O.s used for correlation:    17   286
 NBasis=   286 NAE=    52 NBE=    49 NFC=    16 NFV=     0
 NROrb=    270 NOA=    36 NOB=    33 NVA=   234 NVB=   237

 **** Warning!!: The largest alpha MO coefficient is  0.19099546D+03


 **** Warning!!: The smallest alpha delta epsilon is  0.74576583D-01


 **** Warning!!: The largest beta MO coefficient is  0.19200632D+03

 Semi-Direct transformation.
 ModeAB=           4 MOrb=            36 LenV=    4292902390
 LASXX=    323290755 LTotXX=   323290755 LenRXX=   655848405
 LTotAB=   332557650 MaxLAS=   395263800 LenRXY=           0
 NonZer=   979139160 LenScr=  1474468864 LnRSAI=   395263800
 LnScr1=   595221504 LExtra=           0 Total=   3120802573
 MaxDsk=          -1 SrtSym=           T ITran=            4
 JobTyp=1 Pass  1:  I=   1 to  36.
 (rs|ai) integrals will be sorted in core.
 ModeAB=           4 MOrb=            33 LenV=    4292902390
 LASXX=    298925319 LTotXX=   298925319 LenRXX=   529388409
 LTotAB=   230463090 MaxLAS=   362325150 LenRXY=           0
 NonZer=   828313728 LenScr=  1247343616 LnRSAI=   362325150
 LnScr1=   545619968 LExtra=           0 Total=   2684677143
 MaxDsk=          -1 SrtSym=           T ITran=            4
 JobTyp=2 Pass  1:  I=   1 to  33.
 (rs|ai) integrals will be sorted in core.
 Spin components of T(2) and E(2):
     alpha-alpha T2 =       0.1425004740D+00 E2=     -0.3414574664D+00
     alpha-beta  T2 =       0.5980101706D+00 E2=     -0.1615045968D+01
     beta-beta   T2 =       0.1337539726D+00 E2=     -0.3350863817D+00
 ANorm=    0.1369037844D+01
 E2 =    -0.2291589816D+01 EUMP2 =    -0.76410878697114D+03
 (S**2,0)=  0.37500D+01           (S**2,1)=  0.37500D+01
 E(PUHF)=      -0.76181719968D+03        E(PMP2)=      -0.76410878825D+03
 Keep R2 and R3 ints in memory in canonical form, NReq=1698092567.
 CIDS: In Core Option IDoMem=           1.
 Iterations=  50 Convergence= 0.100D-07
 Produce multiple copies of IABC intergrals
 Iteration Nr.   1
 **********************
 DD1Dir will call FoFMem   1 times, MxPair=      3534
 NAB=  1188 NAA=   630 NBB=   528.
 E(PMP3)=      -0.76383935234D+03
 MP4(R+Q)=  0.19322997D-01
 E3=        0.26943550D+00        EUMP3=      -0.76383935147D+03
 E4(DQ)=   -0.20266991D+00        UMP4(DQ)=   -0.76404202138D+03
 E4(SDQ)=  -0.29174684D+00        UMP4(SDQ)=  -0.76413109831D+03
 DE(Corr)=  -1.9991549     E(Corr)=     -763.81635204    
 NORM(A)=   0.13038809D+01
 Iteration Nr.   2
 **********************
 DD1Dir will call FoFMem   1 times, MxPair=      3534
 NAB=  1188 NAA=   630 NBB=   528.
 DE(Corr)=  -2.2133007     E(CORR)=     -764.03049789     Delta=-2.14D-01
 NORM(A)=   0.13530528D+01
 Iteration Nr.   3
 **********************
 DD1Dir will call FoFMem   1 times, MxPair=      3534
 NAB=  1188 NAA=   630 NBB=   528.
 DE(Corr)=  -2.1611045     E(CORR)=     -763.97830161     Delta= 5.22D-02
 NORM(A)=   0.13719238D+01
 Iteration Nr.   4
 **********************
 DD1Dir will call FoFMem   1 times, MxPair=      3534
 NAB=  1188 NAA=   630 NBB=   528.
 DE(Corr)=  -2.1835194     E(CORR)=     -764.00071655     Delta=-2.24D-02
 NORM(A)=   0.13812502D+01
 Iteration Nr.   5
 **********************
 DD1Dir will call FoFMem   1 times, MxPair=      3534
 NAB=  1188 NAA=   630 NBB=   528.
 DE(Corr)=  -2.1866022     E(CORR)=     -764.00379933     Delta=-3.08D-03
 NORM(A)=   0.13854873D+01
 Iteration Nr.   6
 **********************
 DD1Dir will call FoFMem   1 times, MxPair=      3534
 NAB=  1188 NAA=   630 NBB=   528.
 DE(Corr)=  -2.1868570     E(CORR)=     -764.00405411     Delta=-2.55D-04
 NORM(A)=   0.13868725D+01
 Iteration Nr.   7
 **********************
 DD1Dir will call FoFMem   1 times, MxPair=      3534
 NAB=  1188 NAA=   630 NBB=   528.
 DE(Corr)=  -2.1871154     E(CORR)=     -764.00431257     Delta=-2.58D-04
 NORM(A)=   0.13869614D+01
 Iteration Nr.   8
 **********************
 DD1Dir will call FoFMem   1 times, MxPair=      3534
 NAB=  1188 NAA=   630 NBB=   528.
 DE(Corr)=  -2.1874113     E(CORR)=     -764.00460843     Delta=-2.96D-04
 NORM(A)=   0.13870434D+01
 Iteration Nr.   9
 **********************
 DD1Dir will call FoFMem   1 times, MxPair=      3534
 NAB=  1188 NAA=   630 NBB=   528.
 DE(Corr)=  -2.1871095     E(CORR)=     -764.00430666     Delta= 3.02D-04
 NORM(A)=   0.13869984D+01
 Iteration Nr.  10
 **********************
 DD1Dir will call FoFMem   1 times, MxPair=      3534
 NAB=  1188 NAA=   630 NBB=   528.
 DE(Corr)=  -2.1873023     E(CORR)=     -764.00449949     Delta=-1.93D-04
 NORM(A)=   0.13870036D+01
 Iteration Nr.  11
 **********************
 DD1Dir will call FoFMem   1 times, MxPair=      3534
 NAB=  1188 NAA=   630 NBB=   528.
 DE(Corr)=  -2.1872316     E(CORR)=     -764.00442878     Delta= 7.07D-05
 NORM(A)=   0.13870021D+01
 Iteration Nr.  12
 **********************
 DD1Dir will call FoFMem   1 times, MxPair=      3534
 NAB=  1188 NAA=   630 NBB=   528.
 DE(Corr)=  -2.1872268     E(CORR)=     -764.00442400     Delta= 4.78D-06
 NORM(A)=   0.13869861D+01
 Iteration Nr.  13
 **********************
 DD1Dir will call FoFMem   1 times, MxPair=      3534
 NAB=  1188 NAA=   630 NBB=   528.
 DE(Corr)=  -2.1872356     E(CORR)=     -764.00443276     Delta=-8.77D-06
 NORM(A)=   0.13869849D+01
 Iteration Nr.  14
 **********************
 DD1Dir will call FoFMem   1 times, MxPair=      3534
 NAB=  1188 NAA=   630 NBB=   528.
 DE(Corr)=  -2.1872323     E(CORR)=     -764.00442949     Delta= 3.27D-06
 NORM(A)=   0.13869862D+01
 Iteration Nr.  15
 **********************
 DD1Dir will call FoFMem   1 times, MxPair=      3534
 NAB=  1188 NAA=   630 NBB=   528.
 DE(Corr)=  -2.1872245     E(CORR)=     -764.00442169     Delta= 7.81D-06
 NORM(A)=   0.13869860D+01
 Iteration Nr.  16
 **********************
 DD1Dir will call FoFMem   1 times, MxPair=      3534
 NAB=  1188 NAA=   630 NBB=   528.
 DE(Corr)=  -2.1872342     E(CORR)=     -764.00443137     Delta=-9.68D-06
 NORM(A)=   0.13869897D+01
 Iteration Nr.  17
 **********************
 DD1Dir will call FoFMem   1 times, MxPair=      3534
 NAB=  1188 NAA=   630 NBB=   528.
 DE(Corr)=  -2.1872285     E(CORR)=     -764.00442563     Delta= 5.74D-06
 NORM(A)=   0.13869911D+01
 Iteration Nr.  18
 **********************
 DD1Dir will call FoFMem   1 times, MxPair=      3534
 NAB=  1188 NAA=   630 NBB=   528.
 DE(Corr)=  -2.1872299     E(CORR)=     -764.00442708     Delta=-1.45D-06
 NORM(A)=   0.13869911D+01
 Iteration Nr.  19
 **********************
 DD1Dir will call FoFMem   1 times, MxPair=      3534
 NAB=  1188 NAA=   630 NBB=   528.
 DE(Corr)=  -2.1872305     E(CORR)=     -764.00442761     Delta=-5.26D-07
 NORM(A)=   0.13869920D+01
 Iteration Nr.  20
 **********************
 DD1Dir will call FoFMem   1 times, MxPair=      3534
 NAB=  1188 NAA=   630 NBB=   528.
 DE(Corr)=  -2.1872302     E(CORR)=     -764.00442740     Delta= 2.07D-07
 NORM(A)=   0.13869920D+01
 Iteration Nr.  21
 **********************
 DD1Dir will call FoFMem   1 times, MxPair=      3534
 NAB=  1188 NAA=   630 NBB=   528.
 DE(Corr)=  -2.1872303     E(CORR)=     -764.00442747     Delta=-6.90D-08
 NORM(A)=   0.13869920D+01
 Iteration Nr.  22
 **********************
 DD1Dir will call FoFMem   1 times, MxPair=      3534
 NAB=  1188 NAA=   630 NBB=   528.
 DE(Corr)=  -2.1872303     E(CORR)=     -764.00442744     Delta= 2.45D-08
 NORM(A)=   0.13869921D+01
 Iteration Nr.  23
 **********************
 DD1Dir will call FoFMem   1 times, MxPair=      3534
 NAB=  1188 NAA=   630 NBB=   528.
 DE(Corr)=  -2.1872304     E(CORR)=     -764.00442752     Delta=-7.96D-08
 NORM(A)=   0.13869921D+01
 Iteration Nr.  24
 **********************
 DD1Dir will call FoFMem   1 times, MxPair=      3534
 NAB=  1188 NAA=   630 NBB=   528.
 DE(Corr)=  -2.1872303     E(CORR)=     -764.00442746     Delta= 6.05D-08
 NORM(A)=   0.13869921D+01
 Iteration Nr.  25
 **********************
 DD1Dir will call FoFMem   1 times, MxPair=      3534
 NAB=  1188 NAA=   630 NBB=   528.
 DE(Corr)=  -2.1872304     E(CORR)=     -764.00442751     Delta=-4.79D-08
 NORM(A)=   0.13869921D+01
 Iteration Nr.  26
 **********************
 DD1Dir will call FoFMem   1 times, MxPair=      3534
 NAB=  1188 NAA=   630 NBB=   528.
 DE(Corr)=  -2.1872303     E(CORR)=     -764.00442749     Delta= 2.41D-08
 NORM(A)=   0.13869921D+01
 Iteration Nr.  27
 **********************
 DD1Dir will call FoFMem   1 times, MxPair=      3534
 NAB=  1188 NAA=   630 NBB=   528.
 DE(Corr)=  -2.1872303     E(CORR)=     -764.00442750     Delta=-1.55D-08
 NORM(A)=   0.13869921D+01
 Iteration Nr.  28
 **********************
 DD1Dir will call FoFMem   1 times, MxPair=      3534
 NAB=  1188 NAA=   630 NBB=   528.
 DE(Corr)=  -2.1872303     E(CORR)=     -764.00442750     Delta= 6.20D-09
 NORM(A)=   0.13869921D+01
 Wavefunction amplitudes converged. E(Corr)=     -764.00442750    
 Largest amplitude= 6.80D-02

 Z-amplitude iterations

 Iteration Nr.   1
 **********************
 DD1Dir will call FoFMem   1 times, MxPair=      3534
 NAB=  1188 NAA=   630 NBB=   528.
 DE(Z)=  -2.1184949     E(Z)=     -763.93569207     Delta= 6.87D-02
 NORM(A)=   0.13866903D+01
 Iteration Nr.   2
 **********************
 DD1Dir will call FoFMem   1 times, MxPair=      3534
 NAB=  1188 NAA=   630 NBB=   528.
 DE(Z)=  -2.1183225     E(Z)=     -763.93551967     Delta= 1.72D-04
 NORM(A)=   0.13877388D+01
 Iteration Nr.   3
 **********************
 DD1Dir will call FoFMem   1 times, MxPair=      3534
 NAB=  1188 NAA=   630 NBB=   528.
 DE(Z)=  -2.1186764     E(Z)=     -763.93587358     Delta=-3.54D-04
 NORM(A)=   0.13856658D+01
 Iteration Nr.   4
 **********************
 DD1Dir will call FoFMem   1 times, MxPair=      3534
 NAB=  1188 NAA=   630 NBB=   528.
 DE(Z)=  -2.1180916     E(Z)=     -763.93528872     Delta= 5.85D-04
 NORM(A)=   0.13904806D+01
 Iteration Nr.   5
 **********************
 DD1Dir will call FoFMem   1 times, MxPair=      3534
 NAB=  1188 NAA=   630 NBB=   528.
 DE(Z)=  -2.1195017     E(Z)=     -763.93669889     Delta=-1.41D-03
 NORM(A)=   0.13329476D+01
 Iteration Nr.   6
 **********************
 DD1Dir will call FoFMem   1 times, MxPair=      3534
 NAB=  1188 NAA=   630 NBB=   528.
 DE(Z)=  -2.1011519     E(Z)=     -763.91834910     Delta= 1.83D-02
 NORM(A)=   0.13327831D+01
 Iteration Nr.   7
 **********************
 DD1Dir will call FoFMem   1 times, MxPair=      3534
 NAB=  1188 NAA=   630 NBB=   528.
 DE(Z)=  -2.1009694     E(Z)=     -763.91816652     Delta= 1.83D-04
 NORM(A)=   0.13327390D+01
 Iteration Nr.   8
 **********************
 DD1Dir will call FoFMem   1 times, MxPair=      3534
 NAB=  1188 NAA=   630 NBB=   528.
 DE(Z)=  -2.1009747     E(Z)=     -763.91817184     Delta=-5.31D-06
 NORM(A)=   0.13326757D+01
 Iteration Nr.   9
 **********************
 DD1Dir will call FoFMem   1 times, MxPair=      3534
 NAB=  1188 NAA=   630 NBB=   528.
 DE(Z)=  -2.1009992     E(Z)=     -763.91819638     Delta=-2.45D-05
 NORM(A)=   0.13326663D+01
 Iteration Nr.  10
 **********************
 DD1Dir will call FoFMem   1 times, MxPair=      3534
 NAB=  1188 NAA=   630 NBB=   528.
 DE(Z)=  -2.1009762     E(Z)=     -763.91817338     Delta= 2.30D-05
 NORM(A)=   0.13326645D+01
 Iteration Nr.  11
 **********************
 DD1Dir will call FoFMem   1 times, MxPair=      3534
 NAB=  1188 NAA=   630 NBB=   528.
 DE(Z)=  -2.1009844     E(Z)=     -763.91818155     Delta=-8.17D-06
 NORM(A)=   0.13326663D+01
 Iteration Nr.  12
 **********************
 DD1Dir will call FoFMem   1 times, MxPair=      3534
 NAB=  1188 NAA=   630 NBB=   528.
 DE(Z)=  -2.1009828     E(Z)=     -763.91817995     Delta= 1.60D-06
 NORM(A)=   0.13326655D+01
 Iteration Nr.  13
 **********************
 DD1Dir will call FoFMem   1 times, MxPair=      3534
 NAB=  1188 NAA=   630 NBB=   528.
 DE(Z)=  -2.1009843     E(Z)=     -763.91818144     Delta=-1.49D-06
 NORM(A)=   0.13326657D+01
 Iteration Nr.  14
 **********************
 DD1Dir will call FoFMem   1 times, MxPair=      3534
 NAB=  1188 NAA=   630 NBB=   528.
 DE(Z)=  -2.1009842     E(Z)=     -763.91818138     Delta= 5.69D-08
 NORM(A)=   0.13326650D+01
 Iteration Nr.  15
 **********************
 DD1Dir will call FoFMem   1 times, MxPair=      3534
 NAB=  1188 NAA=   630 NBB=   528.
 DE(Z)=  -2.1009835     E(Z)=     -763.91818070     Delta= 6.84D-07
 NORM(A)=   0.13326645D+01
 Iteration Nr.  16
 **********************
 DD1Dir will call FoFMem   1 times, MxPair=      3534
 NAB=  1188 NAA=   630 NBB=   528.
 DE(Z)=  -2.1009836     E(Z)=     -763.91818074     Delta=-4.69D-08
 NORM(A)=   0.13326642D+01
 Iteration Nr.  17
 **********************
 DD1Dir will call FoFMem   1 times, MxPair=      3534
 NAB=  1188 NAA=   630 NBB=   528.
 DE(Z)=  -2.1009835     E(Z)=     -763.91818066     Delta= 8.40D-08
 NORM(A)=   0.13326642D+01
 Iteration Nr.  18
 **********************
 DD1Dir will call FoFMem   1 times, MxPair=      3534
 NAB=  1188 NAA=   630 NBB=   528.
 DE(Z)=  -2.1009836     E(Z)=     -763.91818076     Delta=-1.05D-07
 NORM(A)=   0.13326640D+01
 Iteration Nr.  19
 **********************
 DD1Dir will call FoFMem   1 times, MxPair=      3534
 NAB=  1188 NAA=   630 NBB=   528.
 DE(Z)=  -2.1009834     E(Z)=     -763.91818059     Delta= 1.72D-07
 NORM(A)=   0.13326641D+01
 Iteration Nr.  20
 **********************
 DD1Dir will call FoFMem   1 times, MxPair=      3534
 NAB=  1188 NAA=   630 NBB=   528.
 DE(Z)=  -2.1009836     E(Z)=     -763.91818074     Delta=-1.52D-07
 NORM(A)=   0.13326640D+01
 Iteration Nr.  21
 **********************
 DD1Dir will call FoFMem   1 times, MxPair=      3534
 NAB=  1188 NAA=   630 NBB=   528.
 DE(Z)=  -2.1009834     E(Z)=     -763.91818060     Delta= 1.45D-07
 NORM(A)=   0.13326640D+01
 Iteration Nr.  22
 **********************
 DD1Dir will call FoFMem   1 times, MxPair=      3534
 NAB=  1188 NAA=   630 NBB=   528.
 DE(Z)=  -2.1009836     E(Z)=     -763.91818072     Delta=-1.20D-07
 NORM(A)=   0.13326640D+01
 Iteration Nr.  23
 **********************
 DD1Dir will call FoFMem   1 times, MxPair=      3534
 NAB=  1188 NAA=   630 NBB=   528.
 DE(Z)=  -2.1009835     E(Z)=     -763.91818062     Delta= 9.98D-08
 NORM(A)=   0.13326640D+01
 Iteration Nr.  24
 **********************
 DD1Dir will call FoFMem   1 times, MxPair=      3534
 NAB=  1188 NAA=   630 NBB=   528.
 DE(Z)=  -2.1009835     E(Z)=     -763.91818070     Delta=-8.14D-08
 NORM(A)=   0.13326640D+01
 Iteration Nr.  25
 **********************
 DD1Dir will call FoFMem   1 times, MxPair=      3534
 NAB=  1188 NAA=   630 NBB=   528.
 DE(Z)=  -2.1009835     E(Z)=     -763.91818064     Delta= 6.51D-08
 NORM(A)=   0.13326640D+01
 Iteration Nr.  26
 **********************
 DD1Dir will call FoFMem   1 times, MxPair=      3534
 NAB=  1188 NAA=   630 NBB=   528.
 DE(Z)=  -2.1009835     E(Z)=     -763.91818069     Delta=-5.10D-08
 NORM(A)=   0.13326640D+01
 Iteration Nr.  27
 **********************
 DD1Dir will call FoFMem   1 times, MxPair=      3534
 NAB=  1188 NAA=   630 NBB=   528.
 DE(Z)=  -2.1009835     E(Z)=     -763.91818065     Delta= 4.06D-08
 NORM(A)=   0.13326640D+01
 Iteration Nr.  28
 **********************
 DD1Dir will call FoFMem   1 times, MxPair=      3534
 NAB=  1188 NAA=   630 NBB=   528.
 DE(Z)=  -2.1009835     E(Z)=     -763.91818068     Delta=-3.21D-08
 NORM(A)=   0.13326640D+01
 Iteration Nr.  29
 **********************
 DD1Dir will call FoFMem   1 times, MxPair=      3534
 NAB=  1188 NAA=   630 NBB=   528.
 DE(Z)=  -2.1009835     E(Z)=     -763.91818065     Delta= 2.57D-08
 NORM(A)=   0.13326640D+01
 Iteration Nr.  30
 **********************
 DD1Dir will call FoFMem   1 times, MxPair=      3534
 NAB=  1188 NAA=   630 NBB=   528.
 DE(Z)=  -2.1009835     E(Z)=     -763.91818067     Delta=-2.05D-08
 NORM(A)=   0.13326640D+01
 Iteration Nr.  31
 **********************
 DD1Dir will call FoFMem   1 times, MxPair=      3534
 NAB=  1188 NAA=   630 NBB=   528.
 DE(Z)=  -2.1009835     E(Z)=     -763.91818066     Delta= 1.65D-08
 NORM(A)=   0.13326640D+01
 Iteration Nr.  32
 **********************
 DD1Dir will call FoFMem   1 times, MxPair=      3534
 NAB=  1188 NAA=   630 NBB=   528.
 DE(Z)=  -2.1009835     E(Z)=     -763.91818067     Delta=-1.33D-08
 NORM(A)=   0.13326640D+01
 Iteration Nr.  33
 **********************
 DD1Dir will call FoFMem   1 times, MxPair=      3534
 NAB=  1188 NAA=   630 NBB=   528.
 DE(Z)=  -2.1009835     E(Z)=     -763.91818066     Delta= 1.08D-08
 NORM(A)=   0.13326640D+01
 Iteration Nr.  34
 **********************
 DD1Dir will call FoFMem   1 times, MxPair=      3534
 NAB=  1188 NAA=   630 NBB=   528.
 DE(Z)=  -2.1009835     E(Z)=     -763.91818067     Delta=-8.80D-09
 NORM(A)=   0.13326640D+01
 Z-amplitudes converged.

 S**2, projected HF & approx projected MPn energies after annihilation of
 unwanted spin states (see manual for definitions):

 spins       (S**2,0) (S**2,1)    PUHF        PMP2        PMP3        PMP4
 annihilated
 s+1         3.75000  3.75000 -761.817200 -764.108788 -763.839352
 s+1,s+2     3.75000  3.75000 -761.817200 -764.108788 -763.839352
 s+1 to s+3  3.75000  3.75000 -761.817200 -764.108788 -763.839352
 s+1 to s+4  3.75000  3.75000 -761.817200 -764.108789 -763.839353
 s+1 to s+5  3.75000  3.75000 -761.817200
 s+1 to s+6  3.75000  3.75000 -761.817200

 Discarding MO integrals.
          Differentiating once with respect to electric field.
                with respect to dipole field.
          Electric field/nuclear overlap derivatives assumed to be zero.
          There are     1 degrees of freedom in the 1st order CPHF.  IDoFFX=0 NUNeed=     1.
 LinEq1:  Iter=  0 NonCon=     1 RMS=2.20D-03 Max=5.31D-02 NDo=     1
 AX will form     1 AO Fock derivatives at one time.
 LinEq1:  Iter=  1 NonCon=     1 RMS=7.08D-04 Max=2.31D-02 NDo=     1
 LinEq1:  Iter=  2 NonCon=     1 RMS=4.85D-04 Max=2.04D-02 NDo=     1
 LinEq1:  Iter=  3 NonCon=     1 RMS=4.26D-04 Max=1.32D-02 NDo=     1
 LinEq1:  Iter=  4 NonCon=     1 RMS=2.35D-04 Max=3.31D-03 NDo=     1
 LinEq1:  Iter=  5 NonCon=     1 RMS=5.18D-05 Max=1.39D-03 NDo=     1
 LinEq1:  Iter=  6 NonCon=     1 RMS=9.25D-06 Max=2.86D-04 NDo=     1
 LinEq1:  Iter=  7 NonCon=     1 RMS=3.85D-06 Max=1.75D-04 NDo=     1
 LinEq1:  Iter=  8 NonCon=     1 RMS=8.47D-07 Max=1.67D-05 NDo=     1
 LinEq1:  Iter=  9 NonCon=     1 RMS=1.43D-07 Max=2.58D-06 NDo=     1
 LinEq1:  Iter= 10 NonCon=     1 RMS=2.23D-08 Max=7.77D-07 NDo=     1
 LinEq1:  Iter= 11 NonCon=     1 RMS=7.07D-09 Max=1.69D-07 NDo=     1
 LinEq1:  Iter= 12 NonCon=     1 RMS=1.46D-09 Max=7.05D-08 NDo=     1
 LinEq1:  Iter= 13 NonCon=     1 RMS=1.82D-10 Max=8.76D-09 NDo=     1
 LinEq1:  Iter= 14 NonCon=     0 RMS=1.83D-11 Max=4.64D-10 NDo=     1
 Linear equations converged to 1.000D-10 1.000D-09 after    14 iterations.
 End of Minotr F.D. properties file   721 does not exist.
 End of Minotr F.D. properties file   722 does not exist.
 End of Minotr F.D. properties file   788 does not exist.

 **********************************************************************

            Population analysis using the CC Density.

 **********************************************************************

 Alpha  occ. eigenvalues --  -20.40240 -20.40240 -20.40240 -20.40240 -20.40240
 Alpha  occ. eigenvalues --  -20.40240 -11.12268 -11.12267 -11.12267 -11.12267
 Alpha  occ. eigenvalues --  -11.12267 -11.12267  -3.21087  -1.98400  -1.98400
 Alpha  occ. eigenvalues --   -1.98400  -1.26339  -1.26220  -1.26220  -1.26220
 Alpha  occ. eigenvalues --   -1.26182  -1.26182  -0.59313  -0.54985  -0.54985
 Alpha  occ. eigenvalues --   -0.54985  -0.54543  -0.54543  -0.46534  -0.40401
 Alpha  occ. eigenvalues --   -0.40401  -0.40401  -0.40399  -0.40399  -0.40399
 Alpha  occ. eigenvalues --   -0.38270  -0.38270  -0.38270  -0.37575  -0.37575
 Alpha  occ. eigenvalues --   -0.37575  -0.35088  -0.35088  -0.33303  -0.33303
 Alpha  occ. eigenvalues --   -0.33303  -0.09202  -0.09202  -0.09202   0.17468
 Alpha  occ. eigenvalues --    0.17468   0.17468
 Alpha virt. eigenvalues --    0.24925   0.33091   0.33091   0.35389   0.35389
 Alpha virt. eigenvalues --    0.35389   0.36515   0.36515   0.36515   0.37519
 Alpha virt. eigenvalues --    0.37519   0.37519   0.39312   0.39312   0.39312
 Alpha virt. eigenvalues --    0.39707   0.39707   0.39707   0.40895   0.40895
 Alpha virt. eigenvalues --    0.40895   0.41178   0.42309   0.42309   0.42309
 Alpha virt. eigenvalues --    0.42384   0.42384   0.42384   0.46913   0.46913
 Alpha virt. eigenvalues --    0.48855   0.48855   0.48855   0.50960   0.50960
 Alpha virt. eigenvalues --    0.50960   0.54246   0.56790   0.56790   0.62804
 Alpha virt. eigenvalues --    0.62804   0.62804   0.63357   0.63357   0.63986
 Alpha virt. eigenvalues --    0.63986   0.63986   0.65487   0.65487   0.65487
 Alpha virt. eigenvalues --    0.65491   0.65491   0.65491   0.68658   0.68658
 Alpha virt. eigenvalues --    0.70645   0.70645   0.70645   0.73030   0.74137
 Alpha virt. eigenvalues --    0.74137   0.74137   0.79879   0.79879   0.79879
 Alpha virt. eigenvalues --    0.81160   0.93934   0.93934   0.93934   0.95943
 Alpha virt. eigenvalues --    0.98420   0.98420   0.98420   1.01662   1.01662
 Alpha virt. eigenvalues --    1.01662   1.07346   1.07346   1.10852   1.10852
 Alpha virt. eigenvalues --    1.18335   1.18635   1.18635   1.18635   1.19824
 Alpha virt. eigenvalues --    1.19824   1.19824   1.19876   1.19876   1.19876
 Alpha virt. eigenvalues --    1.28067   1.28067   1.28067   1.37154   1.37154
 Alpha virt. eigenvalues --    1.40248   1.53861   1.53861   1.53861   1.58205
 Alpha virt. eigenvalues --    1.58205   1.58205   1.59949   1.59949   1.59949
 Alpha virt. eigenvalues --    1.60732   1.60732   1.65514   1.65514   1.65514
 Alpha virt. eigenvalues --    1.70099   1.70135   1.72160   1.72160   1.72160
 Alpha virt. eigenvalues --    1.72232   1.72232   1.72232   1.76338   1.76338
 Alpha virt. eigenvalues --    1.77303   1.77303   1.77303   1.81318   1.83063
 Alpha virt. eigenvalues --    1.83063   1.83063   1.89993   1.89993   1.91286
 Alpha virt. eigenvalues --    1.91286   1.91286   1.98736   1.98736   1.98736
 Alpha virt. eigenvalues --    2.00623   2.00623   2.00623   2.00824   2.14050
 Alpha virt. eigenvalues --    2.14050   2.25594   2.25594   2.25594   2.33281
 Alpha virt. eigenvalues --    2.33281   2.40431   2.40431   2.40431   2.67692
 Alpha virt. eigenvalues --    2.67692   2.67692   3.02494   3.05746   3.05746
 Alpha virt. eigenvalues --    3.29748   3.29748   3.29748   3.35375   3.35375
 Alpha virt. eigenvalues --    3.35375   3.39972   3.39972   3.39972   3.41765
 Alpha virt. eigenvalues --    3.42133   3.42133   3.42472   3.43336   3.43336
 Alpha virt. eigenvalues --    3.43336   3.43354   3.43354   3.43354   3.43535
 Alpha virt. eigenvalues --    3.43535   3.50863   3.50863   3.50863   3.94558
 Alpha virt. eigenvalues --    3.94558   3.94558   4.01924   4.01924   4.01924
 Alpha virt. eigenvalues --    4.03668   4.03668   4.03668   4.06772   4.06772
 Alpha virt. eigenvalues --    4.06772   4.06913   4.06913   4.06913   4.10464
 Alpha virt. eigenvalues --    4.11493   4.11493   4.41719   4.45677   4.45677
 Alpha virt. eigenvalues --    4.45677   4.48187   4.48187   5.81339   5.81339
 Alpha virt. eigenvalues --    5.81339   5.82754   5.82754   5.82754   5.91059
 Alpha virt. eigenvalues --    5.91059   5.91059   5.92209   5.92209   5.92209
 Alpha virt. eigenvalues --    6.43832   6.43832   6.44090   6.46876   6.46876
 Alpha virt. eigenvalues --    6.46876  25.21719  25.27904  25.27904  25.28830
 Alpha virt. eigenvalues --   25.28830  25.28830  51.82621  51.84426  51.84426
 Alpha virt. eigenvalues --   51.84426  51.96334  51.96334  73.34502
  Beta  occ. eigenvalues --  -20.40223 -20.40223 -20.40223 -20.40223 -20.40223
  Beta  occ. eigenvalues --  -20.40223 -11.12267 -11.12266 -11.12266 -11.12266
  Beta  occ. eigenvalues --  -11.12266 -11.12266  -3.21043  -1.98348  -1.98348
  Beta  occ. eigenvalues --   -1.98348  -1.26319  -1.26201  -1.26201  -1.26201
  Beta  occ. eigenvalues --   -1.26162  -1.26162  -0.59285  -0.54938  -0.54938
  Beta  occ. eigenvalues --   -0.54938  -0.54494  -0.54494  -0.46494  -0.40380
  Beta  occ. eigenvalues --   -0.40380  -0.40380  -0.40374  -0.40374  -0.40374
  Beta  occ. eigenvalues --   -0.38249  -0.38249  -0.38249  -0.37552  -0.37552
  Beta  occ. eigenvalues --   -0.37552  -0.35061  -0.35061  -0.33279  -0.33279
  Beta  occ. eigenvalues --   -0.33279  -0.09139  -0.09139  -0.09139
  Beta virt. eigenvalues --    0.27720   0.27720   0.27720   0.30143   0.35250
  Beta virt. eigenvalues --    0.35250   0.35696   0.35696   0.35696   0.38093
  Beta virt. eigenvalues --    0.38093   0.38093   0.38365   0.38365   0.38365
  Beta virt. eigenvalues --    0.39846   0.39846   0.39846   0.40431   0.40431
  Beta virt. eigenvalues --    0.40431   0.42026   0.42026   0.42026   0.42149
  Beta virt. eigenvalues --    0.42751   0.42751   0.42751   0.43339   0.43339
  Beta virt. eigenvalues --    0.43339   0.47318   0.47318   0.48957   0.48957
  Beta virt. eigenvalues --    0.48957   0.51379   0.51379   0.51379   0.54904
  Beta virt. eigenvalues --    0.56989   0.56989   0.63377   0.63377   0.63377
  Beta virt. eigenvalues --    0.63763   0.63763   0.64369   0.64369   0.64369
  Beta virt. eigenvalues --    0.65883   0.65883   0.65883   0.65892   0.65892
  Beta virt. eigenvalues --    0.65892   0.68858   0.68858   0.70958   0.70958
  Beta virt. eigenvalues --    0.70958   0.73337   0.74358   0.74358   0.74358
  Beta virt. eigenvalues --    0.80029   0.80029   0.80029   0.81370   0.94084
  Beta virt. eigenvalues --    0.94084   0.94084   0.96035   0.98440   0.98440
  Beta virt. eigenvalues --    0.98440   1.01733   1.01733   1.01733   1.07417
  Beta virt. eigenvalues --    1.07417   1.10900   1.10900   1.18403   1.18661
  Beta virt. eigenvalues --    1.18661   1.18661   1.19871   1.19871   1.19871
  Beta virt. eigenvalues --    1.19930   1.19930   1.19930   1.28120   1.28120
  Beta virt. eigenvalues --    1.28120   1.37190   1.37190   1.40391   1.53916
  Beta virt. eigenvalues --    1.53916   1.53916   1.58282   1.58282   1.58282
  Beta virt. eigenvalues --    1.60019   1.60019   1.60019   1.60833   1.60833
  Beta virt. eigenvalues --    1.65561   1.65561   1.65561   1.70123   1.70125
  Beta virt. eigenvalues --    1.72214   1.72214   1.72214   1.72291   1.72291
  Beta virt. eigenvalues --    1.72291   1.76329   1.76329   1.77310   1.77310
  Beta virt. eigenvalues --    1.77310   1.81310   1.83067   1.83067   1.83067
  Beta virt. eigenvalues --    1.90004   1.90004   1.91287   1.91287   1.91287
  Beta virt. eigenvalues --    1.98742   1.98742   1.98742   2.00674   2.00674
  Beta virt. eigenvalues --    2.00674   2.00913   2.14066   2.14066   2.25613
  Beta virt. eigenvalues --    2.25613   2.25613   2.33304   2.33304   2.40444
  Beta virt. eigenvalues --    2.40444   2.40444   2.67706   2.67706   2.67706
  Beta virt. eigenvalues --    3.02541   3.05767   3.05767   3.29759   3.29759
  Beta virt. eigenvalues --    3.29759   3.35382   3.35382   3.35382   3.39983
  Beta virt. eigenvalues --    3.39983   3.39983   3.41778   3.42146   3.42146
  Beta virt. eigenvalues --    3.42485   3.43351   3.43351   3.43351   3.43361
  Beta virt. eigenvalues --    3.43361   3.43361   3.43550   3.43550   3.50873
  Beta virt. eigenvalues --    3.50873   3.50873   3.94567   3.94567   3.94567
  Beta virt. eigenvalues --    4.01940   4.01940   4.01940   4.03684   4.03684
  Beta virt. eigenvalues --    4.03684   4.06789   4.06789   4.06789   4.06928
  Beta virt. eigenvalues --    4.06928   4.06928   4.10472   4.11497   4.11497
  Beta virt. eigenvalues --    4.41739   4.45697   4.45697   4.45697   4.48213
  Beta virt. eigenvalues --    4.48213   5.81358   5.81358   5.81358   5.82776
  Beta virt. eigenvalues --    5.82776   5.82776   5.91077   5.91077   5.91077
  Beta virt. eigenvalues --    5.92226   5.92226   5.92226   6.43853   6.43853
  Beta virt. eigenvalues --    6.44114   6.46895   6.46895   6.46895  25.21721
  Beta virt. eigenvalues --   25.27906  25.27906  25.28832  25.28832  25.28832
  Beta virt. eigenvalues --   51.82636  51.84441  51.84441  51.84441  51.96348
  Beta virt. eigenvalues --   51.96348  73.34528
          Condensed to atoms (all electrons):
               1          2          3          4          5          6
     1  Cr 196.800820 -30.893631 -30.893692 -30.893643 -30.893680 -30.893627
     2  C  -30.893631  74.836656 -39.007474   0.408764   0.408770   0.408762
     3  C  -30.893692 -39.007474  74.836680   0.408774   0.408779   0.408771
     4  C  -30.893643   0.408764   0.408774  74.836661 -39.007474   0.408764
     5  C  -30.893680   0.408770   0.408779 -39.007474  74.836676   0.408769
     6  C  -30.893627   0.408762   0.408771   0.408764   0.408769  74.836655
     7  C  -30.893696   0.408773   0.408782   0.408774   0.408780 -39.007474
     8  O    1.344962  -2.202909   0.589477   0.087148   0.087148   0.087148
     9  O    1.344963   0.589477  -2.202910   0.087148   0.087148   0.087148
    10  O    1.344963   0.087148   0.087148  -2.202910   0.589477   0.087148
    11  O    1.344963   0.087148   0.087148   0.589477  -2.202910   0.087148
    12  O    1.344962   0.087148   0.087148   0.087148   0.087148  -2.202909
    13  O    1.344963   0.087148   0.087148   0.087148   0.087148   0.589477
               7          8          9         10         11         12
     1  Cr -30.893696   1.344962   1.344963   1.344963   1.344963   1.344962
     2  C    0.408773  -2.202909   0.589477   0.087148   0.087148   0.087148
     3  C    0.408782   0.589477  -2.202910   0.087148   0.087148   0.087148
     4  C    0.408774   0.087148   0.087148  -2.202910   0.589477   0.087148
     5  C    0.408780   0.087148   0.087148   0.589477  -2.202910   0.087148
     6  C  -39.007474   0.087148   0.087148   0.087148   0.087148  -2.202909
     7  C   74.836682   0.087148   0.087148   0.087148   0.087148   0.589477
     8  O    0.087148   8.248197  -0.005416  -0.011696  -0.011696  -0.011696
     9  O    0.087148  -0.005416   8.248197  -0.011696  -0.011696  -0.011696
    10  O    0.087148  -0.011696  -0.011696   8.248197  -0.005416  -0.011696
    11  O    0.087148  -0.011696  -0.011696  -0.005416   8.248197  -0.011696
    12  O    0.589477  -0.011696  -0.011696  -0.011696  -0.011696   8.248197
    13  O   -2.202910  -0.011696  -0.011696  -0.011696  -0.011696  -0.005416
              13
     1  Cr   1.344963
     2  C    0.087148
     3  C    0.087148
     4  C    0.087148
     5  C    0.087148
     6  C    0.589477
     7  C   -2.202910
     8  O   -0.011696
     9  O   -0.011696
    10  O   -0.011696
    11  O   -0.011696
    12  O   -0.005416
    13  O    8.248197
          Atomic-Atomic Spin Densities.
               1          2          3          4          5          6
     1  Cr  93.974267 -15.051534 -15.051595 -15.051547 -15.051583 -15.051529
     2  C  -15.051534  62.683058 -39.827329  -1.989330  -1.989325  -1.989333
     3  C  -15.051595 -39.827329  62.683082  -1.989321  -1.989316  -1.989324
     4  C  -15.051547  -1.989330  -1.989321  62.683063 -39.827329  -1.989331
     5  C  -15.051583  -1.989325  -1.989316 -39.827329  62.683077  -1.989326
     6  C  -15.051529  -1.989333  -1.989324  -1.989331  -1.989326  62.683056
     7  C  -15.051601  -1.989322  -1.989313  -1.989320  -1.989315 -39.827330
     8  O    0.849302  -2.052516   0.604486   0.129627   0.129627   0.129627
     9  O    0.849303   0.604486  -2.052517   0.129627   0.129627   0.129627
    10  O    0.849302   0.129627   0.129627  -2.052516   0.604486   0.129627
    11  O    0.849303   0.129627   0.129627   0.604486  -2.052517   0.129627
    12  O    0.849302   0.129627   0.129627   0.129627   0.129627  -2.052516
    13  O    0.849303   0.129627   0.129627   0.129627   0.129627   0.604486
               7          8          9         10         11         12
     1  Cr -15.051601   0.849302   0.849303   0.849302   0.849303   0.849302
     2  C   -1.989322  -2.052516   0.604486   0.129627   0.129627   0.129627
     3  C   -1.989313   0.604486  -2.052517   0.129627   0.129627   0.129627
     4  C   -1.989320   0.129627   0.129627  -2.052516   0.604486   0.129627
     5  C   -1.989315   0.129627   0.129627   0.604486  -2.052517   0.129627
     6  C  -39.827330   0.129627   0.129627   0.129627   0.129627  -2.052516
     7  C   62.683084   0.129627   0.129627   0.129627   0.129627   0.604486
     8  O    0.129627   0.250292  -0.004793  -0.010689  -0.010689  -0.010689
     9  O    0.129627  -0.004793   0.250292  -0.010689  -0.010689  -0.010689
    10  O    0.129627  -0.010689  -0.010689   0.250292  -0.004793  -0.010689
    11  O    0.129627  -0.010689  -0.010689  -0.004793   0.250292  -0.010689
    12  O    0.604486  -0.010689  -0.010689  -0.010689  -0.010689   0.250292
    13  O   -2.052517  -0.010689  -0.010689  -0.010689  -0.010689  -0.004793
              13
     1  Cr   0.849303
     2  C    0.129627
     3  C    0.129627
     4  C    0.129627
     5  C    0.129627
     6  C    0.604486
     7  C   -2.052517
     8  O   -0.010689
     9  O   -0.010689
    10  O   -0.010689
    11  O   -0.010689
    12  O   -0.004793
    13  O    0.250292
 Mulliken charges and spin densities:
               1          2
     1  Cr  -5.508628   8.760694
     2  C    0.694221  -1.082640
     3  C    0.694221  -1.082640
     4  C    0.694221  -1.082640
     5  C    0.694221  -1.082639
     6  C    0.694221  -1.082640
     7  C    0.694221  -1.082639
     8  O   -0.276117   0.122524
     9  O   -0.276117   0.122524
    10  O   -0.276117   0.122524
    11  O   -0.276117   0.122524
    12  O   -0.276117   0.122524
    13  O   -0.276117   0.122524
 Sum of Mulliken charges =  -3.00000   3.00000
 Mulliken charges and spin densities with hydrogens summed into heavy atoms:
               1          2
     1  Cr  -5.508628   8.760694
     2  C    0.694221  -1.082640
     3  C    0.694221  -1.082640
     4  C    0.694221  -1.082640
     5  C    0.694221  -1.082639
     6  C    0.694221  -1.082640
     7  C    0.694221  -1.082639
     8  O   -0.276117   0.122524
     9  O   -0.276117   0.122524
    10  O   -0.276117   0.122524
    11  O   -0.276117   0.122524
    12  O   -0.276117   0.122524
    13  O   -0.276117   0.122524
 Electronic spatial extent (au):  <R**2>=           2661.2395
 Charge=             -3.0000 electrons
 Dipole moment (field-independent basis, Debye):
    X=             -0.0000    Y=             -0.0000    Z=             -0.0000  Tot=              0.0000
 Quadrupole moment (field-independent basis, Debye-Ang):
   XX=           -267.8485   YY=           -267.8485   ZZ=           -267.8485
   XY=              0.0000   XZ=              0.0000   YZ=              0.0000
 Traceless Quadrupole moment (field-independent basis, Debye-Ang):
   XX=             -0.0000   YY=             -0.0000   ZZ=              0.0000
   XY=              0.0000   XZ=              0.0000   YZ=              0.0000
 Octapole moment (field-independent basis, Debye-Ang**2):
  XXX=             -0.0000  YYY=             -0.0000  ZZZ=             -0.0000  XYY=             -0.0000
  XXY=             -0.0000  XXZ=             -0.0000  XZZ=             -0.0000  YZZ=             -0.0000
  YYZ=             -0.0000  XYZ=             -0.0000
 Hexadecapole moment (field-independent basis, Debye-Ang**3):
 XXXX=          -5490.8342 YYYY=          -5490.8342 ZZZZ=          -5490.8342 XXXY=              0.0000
 XXXZ=              0.0000 YYYX=              0.0000 YYYZ=              0.0000 ZZZX=              0.0000
 ZZZY=              0.0000 XXYY=          -2106.6659 XXZZ=          -2106.6659 YYZZ=          -2106.6659
 XXYZ=              0.0000 YYXZ=              0.0000 ZZXY=              0.0000
 N-N= 8.007125484233D+02 E-N=-3.414590623323D+03  KE= 7.216940758106D+02
                          Isotropic Fermi Contact Couplings
        Atom                 a.u.       MegaHertz       Gauss      10(-4) cm-1
     1  Cr(53)             0.00000      -0.00000      -0.00000      -0.00000
     2  C(13)              0.00074       0.27848       0.09937       0.09289
     3  C(13)              0.00074       0.27848       0.09937       0.09289
     4  C(13)              0.00074       0.27848       0.09937       0.09289
     5  C(13)              0.00074       0.27848       0.09937       0.09289
     6  C(13)              0.00074       0.27849       0.09937       0.09289
     7  C(13)              0.00074       0.27848       0.09937       0.09289
     8  O(17)              0.01481      -2.99182      -1.06756      -0.99796
     9  O(17)              0.01481      -2.99182      -1.06756      -0.99796
    10  O(17)              0.01481      -2.99182      -1.06756      -0.99796
    11  O(17)              0.01481      -2.99182      -1.06756      -0.99796
    12  O(17)              0.01481      -2.99182      -1.06756      -0.99796
    13  O(17)              0.01481      -2.99182      -1.06756      -0.99796
 --------------------------------------------------------
       Center         ----  Spin Dipole Couplings  ----
                      3XX-RR        3YY-RR        3ZZ-RR
 --------------------------------------------------------
     1   Atom       -0.000000      0.000000     -0.000000
     2   Atom        0.001253     -0.000626     -0.000626
     3   Atom        0.001253     -0.000626     -0.000626
     4   Atom       -0.000626      0.001253     -0.000626
     5   Atom       -0.000626      0.001253     -0.000626
     6   Atom       -0.000626     -0.000626      0.001253
     7   Atom       -0.000626     -0.000626      0.001253
     8   Atom       -0.000349      0.000174      0.000174
     9   Atom       -0.000349      0.000174      0.000174
    10   Atom        0.000174     -0.000349      0.000174
    11   Atom        0.000174     -0.000349      0.000174
    12   Atom        0.000174      0.000174     -0.000349
    13   Atom        0.000174      0.000174     -0.000349
 --------------------------------------------------------
                        XY            XZ            YZ
 --------------------------------------------------------
     1   Atom       -0.000000      0.000000     -0.000000
     2   Atom       -0.000000     -0.000000      0.000000
     3   Atom       -0.000000      0.000000      0.000000
     4   Atom       -0.000000     -0.000000     -0.000000
     5   Atom        0.000000      0.000000      0.000000
     6   Atom        0.000000     -0.000000      0.000000
     7   Atom        0.000000      0.000000     -0.000000
     8   Atom        0.000000      0.000000      0.000000
     9   Atom       -0.000000     -0.000000      0.000000
    10   Atom        0.000000      0.000000      0.000000
    11   Atom       -0.000000      0.000000     -0.000000
    12   Atom        0.000000      0.000000      0.000000
    13   Atom        0.000000     -0.000000     -0.000000
 --------------------------------------------------------


 ---------------------------------------------------------------------------------
              Anisotropic Spin Dipole Couplings in Principal Axis System
 ---------------------------------------------------------------------------------

       Atom             a.u.   MegaHertz   Gauss  10(-4) cm-1        Axes

              Baa    -0.0000     0.000     0.000     0.000  0.9894  0.1159 -0.0875
     1 Cr(53) Bbb    -0.0000     0.000     0.000     0.000  0.0685  0.1591  0.9849
              Bcc     0.0000    -0.000    -0.000    -0.000 -0.1281  0.9804 -0.1495
 
              Baa    -0.0006    -0.084    -0.030    -0.028  0.0000 -0.4655  0.8851
     2 C(13)  Bbb    -0.0006    -0.084    -0.030    -0.028  0.0000  0.8851  0.4655
              Bcc     0.0013     0.168     0.060     0.056  1.0000 -0.0000 -0.0000
 
              Baa    -0.0006    -0.084    -0.030    -0.028  0.0000  0.8491 -0.5282
     3 C(13)  Bbb    -0.0006    -0.084    -0.030    -0.028 -0.0000  0.5282  0.8491
              Bcc     0.0013     0.168     0.060     0.056  1.0000 -0.0000  0.0000
 
              Baa    -0.0006    -0.084    -0.030    -0.028  0.1198  0.0000  0.9928
     4 C(13)  Bbb    -0.0006    -0.084    -0.030    -0.028  0.9928  0.0000 -0.1198
              Bcc     0.0013     0.168     0.060     0.056 -0.0000  1.0000 -0.0000
 
              Baa    -0.0006    -0.084    -0.030    -0.028 -0.0108 -0.0000  0.9999
     5 C(13)  Bbb    -0.0006    -0.084    -0.030    -0.028  0.9999 -0.0000  0.0108
              Bcc     0.0013     0.168     0.060     0.056  0.0000  1.0000  0.0000
 
              Baa    -0.0006    -0.084    -0.030    -0.028  0.7298 -0.6837  0.0000
     6 C(13)  Bbb    -0.0006    -0.084    -0.030    -0.028  0.6837  0.7298  0.0000
              Bcc     0.0013     0.168     0.060     0.056 -0.0000  0.0000  1.0000
 
              Baa    -0.0006    -0.084    -0.030    -0.028 -0.3467  0.9380  0.0000
     7 C(13)  Bbb    -0.0006    -0.084    -0.030    -0.028  0.9380  0.3467 -0.0000
              Bcc     0.0013     0.168     0.060     0.056  0.0000 -0.0000  1.0000
 
              Baa    -0.0003     0.025     0.009     0.008  1.0000 -0.0000 -0.0000
     8 O(17)  Bbb     0.0002    -0.013    -0.005    -0.004  0.0000  0.9788 -0.2047
              Bcc     0.0002    -0.013    -0.005    -0.004  0.0000  0.2047  0.9788
 
              Baa    -0.0003     0.025     0.009     0.008  1.0000  0.0000  0.0000
     9 O(17)  Bbb     0.0002    -0.013    -0.005    -0.004 -0.0000  0.9048 -0.4259
              Bcc     0.0002    -0.013    -0.005    -0.004 -0.0000  0.4259  0.9048
 
              Baa    -0.0003     0.025     0.009     0.008 -0.0000  1.0000 -0.0000
    10 O(17)  Bbb     0.0002    -0.013    -0.005    -0.004  0.9321  0.0000 -0.3621
              Bcc     0.0002    -0.013    -0.005    -0.004  0.3621  0.0000  0.9321
 
              Baa    -0.0003     0.025     0.009     0.008  0.0000  1.0000  0.0000
    11 O(17)  Bbb     0.0002    -0.013    -0.005    -0.004  0.8894 -0.0000 -0.4572
              Bcc     0.0002    -0.013    -0.005    -0.004  0.4572 -0.0000  0.8894
 
              Baa    -0.0003     0.025     0.009     0.008 -0.0000 -0.0000  1.0000
    12 O(17)  Bbb     0.0002    -0.013    -0.005    -0.004 -0.3541  0.9352  0.0000
              Bcc     0.0002    -0.013    -0.005    -0.004  0.9352  0.3541  0.0000
 
              Baa    -0.0003     0.025     0.009     0.008  0.0000  0.0000  1.0000
    13 O(17)  Bbb     0.0002    -0.013    -0.005    -0.004 -0.4324  0.9017 -0.0000
              Bcc     0.0002    -0.013    -0.005    -0.004  0.9017  0.4324 -0.0000
 

 ---------------------------------------------------------------------------------

 1\1\GINC-N003\SP\UCCSD-FC\Gen\C6Cr1O6(3-,4)\JORGE\01-Feb-2021\0\\# UCC
 SD/ChkBasis NoSymm Guess=Read Geom=Check Density=Current\\Single point
  of Cr(CO)6^-3 at the UCCSD/GenECP/6-31+G(d) level of theory of geomet
 rically optimized Cr(CO)6 at the CAM-B3LYP/GenECP/6-31+G(d) level of t
 heory\\-3,4\Cr,0,0.,-0.0000000032,0.\C,0,1.913598115,-0.0000000001,-0.
 0000000001\C,0,-1.913598115,-0.0000000001,0.\C,0,0.,1.9135981151,0.000
 0000001\C,0,0.,-1.9135981151,0.0000000001\C,0,0.,-0.0000000001,1.91359
 81154\C,0,0.,-0.0000000001,-1.9135981155\O,0,3.0485736889,0.0000000023
 ,-0.0000000002\O,0,-3.048573689,0.0000000023,-0.0000000002\O,0,0.,3.04
 85736881,0.0000000003\O,0,0.,-3.0485736899,0.0000000003\O,0,0.,0.00000
 00005,3.0485736891\O,0,0.,0.0000000005,-3.0485736892\\Version=ES64L-G1
 6RevB.01\HF=-761.8171972\MP2=-764.108787\MP3=-763.8393515\MP4D=-764.06
 13444\MP4DQ=-764.0420214\PUHF=-761.8171997\PMP2-0=-764.1087883\PMP3-0=
 -763.8393523\MP4SDQ=-764.1310983\CCSD=-764.0044275\S2=3.750026\S2-1=3.
 75\S2A=3.75\RMSD=6.735e-09\Dipole=-0.0000005,-0.0000001,-0.0000005\Qua
 drupole=0.,0.,0.,0.,0.,0.\PG=OH [O(Cr1),3C4(O1C1.C1O1)]\\@


 There ain't no surer way to find out whether you
 like people or hate them than to travel with them.
                                     -- Mark Twain
 Job cpu time:       4 days  0 hours 24 minutes 18.7 seconds.
 Elapsed time:       0 days  6 hours  7 minutes 42.8 seconds.
 File lengths (MBytes):  RWF=  84267 Int=      0 D2E=      0 Chk=     12 Scr=      1
 Normal termination of Gaussian 16 at Mon Feb  1 07:12:19 2021.
