 Entering Gaussian System, Link 0=g16
 Initial command:
 /opt/g16/l1.exe "/scratch/1451/Gau-340798.inp" -scrdir="/scratch/1451/"
 Entering Link 1 = /opt/g16/l1.exe PID=    340799.
  
 Copyright (c) 1988-2017, Gaussian, Inc.  All Rights Reserved.
  
 This is part of the Gaussian(R) 16 program.  It is based on
 the Gaussian(R) 09 system (copyright 2009, Gaussian, Inc.),
 the Gaussian(R) 03 system (copyright 2003, Gaussian, Inc.),
 the Gaussian(R) 98 system (copyright 1998, Gaussian, Inc.),
 the Gaussian(R) 94 system (copyright 1995, Gaussian, Inc.),
 the Gaussian 92(TM) system (copyright 1992, Gaussian, Inc.),
 the Gaussian 90(TM) system (copyright 1990, Gaussian, Inc.),
 the Gaussian 88(TM) system (copyright 1988, Gaussian, Inc.),
 the Gaussian 86(TM) system (copyright 1986, Carnegie Mellon
 University), and the Gaussian 82(TM) system (copyright 1983,
 Carnegie Mellon University). Gaussian is a federally registered
 trademark of Gaussian, Inc.
  
 This software contains proprietary and confidential information,
 including trade secrets, belonging to Gaussian, Inc.
  
 This software is provided under written license and may be
 used, copied, transmitted, or stored only in accord with that
 written license.
  
 The following legend is applicable only to US Government
 contracts under FAR:
  
                    RESTRICTED RIGHTS LEGEND
  
 Use, reproduction and disclosure by the US Government is
 subject to restrictions as set forth in subparagraphs (a)
 and (c) of the Commercial Computer Software - Restricted
 Rights clause in FAR 52.227-19.
  
 Gaussian, Inc.
 340 Quinnipiac St., Bldg. 40, Wallingford CT 06492
  
  
 ---------------------------------------------------------------
 Warning -- This program may not be used in any manner that
 competes with the business of Gaussian, Inc. or will provide
 assistance to any competitor of Gaussian, Inc.  The licensee
 of this program is prohibited from giving any competitor of
 Gaussian, Inc. access to this program.  By using this program,
 the user acknowledges that Gaussian, Inc. is engaged in the
 business of creating and licensing software in the field of
 computational chemistry and represents and warrants to the
 licensee that it is not a competitor of Gaussian, Inc. and that
 it will not use this program in any manner prohibited above.
 ---------------------------------------------------------------
  

 Cite this work as:
 Gaussian 16, Revision B.01,
 M. J. Frisch, G. W. Trucks, H. B. Schlegel, G. E. Scuseria, 
 M. A. Robb, J. R. Cheeseman, G. Scalmani, V. Barone, 
 G. A. Petersson, H. Nakatsuji, X. Li, M. Caricato, A. V. Marenich, 
 J. Bloino, B. G. Janesko, R. Gomperts, B. Mennucci, H. P. Hratchian, 
 J. V. Ortiz, A. F. Izmaylov, J. L. Sonnenberg, D. Williams-Young, 
 F. Ding, F. Lipparini, F. Egidi, J. Goings, B. Peng, A. Petrone, 
 T. Henderson, D. Ranasinghe, V. G. Zakrzewski, J. Gao, N. Rega, 
 G. Zheng, W. Liang, M. Hada, M. Ehara, K. Toyota, R. Fukuda, 
 J. Hasegawa, M. Ishida, T. Nakajima, Y. Honda, O. Kitao, H. Nakai, 
 T. Vreven, K. Throssell, J. A. Montgomery, Jr., J. E. Peralta, 
 F. Ogliaro, M. J. Bearpark, J. J. Heyd, E. N. Brothers, K. N. Kudin, 
 V. N. Staroverov, T. A. Keith, R. Kobayashi, J. Normand, 
 K. Raghavachari, A. P. Rendell, J. C. Burant, S. S. Iyengar, 
 J. Tomasi, M. Cossi, J. M. Millam, M. Klene, C. Adamo, R. Cammi, 
 J. W. Ochterski, R. L. Martin, K. Morokuma, O. Farkas, 
 J. B. Foresman, and D. J. Fox, Gaussian, Inc., Wallingford CT, 2016.
 
 ******************************************
 Gaussian 16:  ES64L-G16RevB.01 20-Dec-2017
                31-Jan-2021 
 ******************************************
 %OldChk=CrCO6_opt.chk
 %chk=CrCO6couple_N.chk
 %mem=32GB
 %nprocshared=16
 Will use up to   16 processors via shared memory.
 Copying data from "CrCO6_opt.chk" to current chk file "CrCO6couple_N.chk"
 IOpt=  2 FromEx=T IUOpen= 4 IOptOp= 5 NList=   0 IFRang= 0 IUIn= 4 IUOut= 2.
 ------------------------------------------------------------
 # CCSD/ChkBasis NoSymm Guess=Read Geom=Check Density=Current
 ------------------------------------------------------------
 1/29=2,30=1,38=1,172=1/1;
 2/12=2,15=1,40=1/2;
 3/5=7,6=2,11=9,14=-4,25=1,30=1,67=1,71=1,116=-2/1,2,3;
 4/5=1/1;
 5/5=2,38=6/2;
 8/6=4,9=120000,10=1/1,4;
 9/5=7,15=1/13;
 11/28=-8,31=1,32=3,42=3/11;
 10/5=6,13=10,31=1/2;
 6/7=2,8=2,9=2,10=2,22=-1/1;
 99/5=1,9=1/99;
 ----------------------------------------------------------------------
 Single point at the CCSD/GenECP/6-31+G(d) level of theory of geometric
 ally optimized Cr(CO)6 at the CAM-B3LYP/GenECP/6-31+G(d) level of theo
 ry
 ----------------------------------------------------------------------
 Structure from the checkpoint file:  "CrCO6couple_N.chk"
 Charge =  0 Multiplicity = 1
 Redundant internal coordinates found in file.  (old form).
 Cr,0,0.,-0.0000000032,0.
 C,0,1.913598115,-0.0000000001,-0.0000000001
 C,0,-1.913598115,-0.0000000001,0.
 C,0,0.,1.9135981151,0.0000000001
 C,0,0.,-1.9135981151,0.0000000001
 C,0,0.,-0.0000000001,1.9135981154
 C,0,0.,-0.0000000001,-1.9135981155
 O,0,3.0485736889,0.0000000023,-0.0000000002
 O,0,-3.048573689,0.0000000023,-0.0000000002
 O,0,0.,3.0485736881,0.0000000003
 O,0,0.,-3.0485736899,0.0000000003
 O,0,0.,0.0000000005,3.0485736891
 O,0,0.,0.0000000005,-3.0485736892
 Recover connectivity data from disk.
                           ----------------------------
                           !    Current Parameters    !
                           ! (Angstroms and Degrees)  !
 --------------------------                            --------------------------
 ! Name  Definition              Value                                          !
 --------------------------------------------------------------------------------
 ! R1    R(1,2)                  1.9136                                         !
 ! R2    R(1,3)                  1.9136                                         !
 ! R3    R(1,4)                  1.9136                                         !
 ! R4    R(1,5)                  1.9136                                         !
 ! R5    R(1,6)                  1.9136                                         !
 ! R6    R(1,7)                  1.9136                                         !
 ! R7    R(2,8)                  1.135                                          !
 ! R8    R(3,9)                  1.135                                          !
 ! R9    R(4,10)                 1.135                                          !
 ! R10   R(5,11)                 1.135                                          !
 ! R11   R(6,12)                 1.135                                          !
 ! R12   R(7,13)                 1.135                                          !
 ! A1    A(2,1,4)               90.0                                            !
 ! A2    A(2,1,5)               90.0                                            !
 ! A3    A(2,1,6)               90.0                                            !
 ! A4    A(2,1,7)               90.0                                            !
 ! A5    A(3,1,4)               90.0                                            !
 ! A6    A(3,1,5)               90.0                                            !
 ! A7    A(3,1,6)               90.0                                            !
 ! A8    A(3,1,7)               90.0                                            !
 ! A9    A(4,1,6)               90.0                                            !
 ! A10   A(4,1,7)               90.0                                            !
 ! A11   A(5,1,6)               90.0                                            !
 ! A12   A(5,1,7)               90.0                                            !
 ! A13   L(2,1,3,4,-1)         180.0                                            !
 ! A14   L(4,1,5,2,-1)         180.0                                            !
 ! A15   L(6,1,7,2,-1)         180.0                                            !
 ! A16   L(1,2,8,10,-1)        180.0                                            !
 ! A17   L(1,3,9,10,-1)        180.0                                            !
 ! A18   L(1,4,10,8,-1)        180.0                                            !
 ! A19   L(1,5,11,8,-1)        180.0                                            !
 ! A20   L(1,6,12,8,-1)        180.0                                            !
 ! A21   L(1,7,13,8,-1)        180.0                                            !
 ! A22   L(2,1,3,4,-2)         180.0                                            !
 ! A23   L(4,1,5,2,-2)         180.0                                            !
 ! A24   L(6,1,7,2,-2)         180.0                                            !
 ! A25   L(1,2,8,10,-2)        180.0                                            !
 ! A26   L(1,3,9,10,-2)        180.0                                            !
 ! A27   L(1,4,10,8,-2)        180.0                                            !
 ! A28   L(1,5,11,8,-2)        180.0                                            !
 ! A29   L(1,6,12,8,-2)        180.0                                            !
 ! A30   L(1,7,13,8,-2)        180.0                                            !
 ! D1    D(2,1,6,4)             90.0                                            !
 ! D2    D(2,1,7,4)            -90.0                                            !
 ! D3    D(2,1,6,5)            -90.0                                            !
 ! D4    D(2,1,7,5)             90.0                                            !
 ! D5    D(3,1,6,4)            -90.0                                            !
 ! D6    D(3,1,7,4)             90.0                                            !
 ! D7    D(3,1,6,5)             90.0                                            !
 ! D8    D(3,1,7,5)            -90.0                                            !
 --------------------------------------------------------------------------------
                          Input orientation:                          
 ---------------------------------------------------------------------
 Center     Atomic      Atomic             Coordinates (Angstroms)
 Number     Number       Type             X           Y           Z
 ---------------------------------------------------------------------
      1         24           0       -0.000000   -0.000000   -0.000000
      2          6           0        1.913598   -0.000000   -0.000000
      3          6           0       -1.913598   -0.000000   -0.000000
      4          6           0       -0.000000    1.913598    0.000000
      5          6           0        0.000000   -1.913598    0.000000
      6          6           0       -0.000000   -0.000000    1.913598
      7          6           0       -0.000000   -0.000000   -1.913598
      8          8           0        3.048574    0.000000   -0.000000
      9          8           0       -3.048574    0.000000   -0.000000
     10          8           0        0.000000    3.048574    0.000000
     11          8           0        0.000000   -3.048574    0.000000
     12          8           0        0.000000    0.000000    3.048574
     13          8           0       -0.000000    0.000000   -3.048574
 ---------------------------------------------------------------------
                    Distance matrix (angstroms):
                    1          2          3          4          5
     1  Cr   0.000000
     2  C    1.913598   0.000000
     3  C    1.913598   3.827196   0.000000
     4  C    1.913598   2.706236   2.706236   0.000000
     5  C    1.913598   2.706236   2.706236   3.827196   0.000000
     6  C    1.913598   2.706236   2.706236   2.706236   2.706236
     7  C    1.913598   2.706236   2.706236   2.706236   2.706236
     8  O    3.048574   1.134976   4.962172   3.599397   3.599397
     9  O    3.048574   4.962172   1.134976   3.599397   3.599397
    10  O    3.048574   3.599397   3.599397   1.134976   4.962172
    11  O    3.048574   3.599397   3.599397   4.962172   1.134976
    12  O    3.048574   3.599397   3.599397   3.599397   3.599397
    13  O    3.048574   3.599397   3.599397   3.599397   3.599397
                    6          7          8          9         10
     6  C    0.000000
     7  C    3.827196   0.000000
     8  O    3.599397   3.599397   0.000000
     9  O    3.599397   3.599397   6.097147   0.000000
    10  O    3.599397   3.599397   4.311334   4.311334   0.000000
    11  O    3.599397   3.599397   4.311334   4.311334   6.097147
    12  O    1.134976   4.962172   4.311334   4.311334   4.311334
    13  O    4.962172   1.134976   4.311334   4.311334   4.311334
                   11         12         13
    11  O    0.000000
    12  O    4.311334   0.000000
    13  O    4.311334   6.097147   0.000000
 Symmetry turned off by external request.
 Stoichiometry    C6CrO6
 Framework group  OH[O(Cr),3C4(OC.CO)]
 Deg. of freedom     2
 Full point group                 OH      NOp  48
 Rotational constants (GHZ):           0.6560097           0.6560097           0.6560097
 Basis read from chk: "CrCO6couple_N.chk" (5D, 7F)
 Pseudo-potential data read from chk file.
   286 basis functions,   484 primitive gaussians,   300 cartesian basis functions
    49 alpha electrons       49 beta electrons
       nuclear repulsion energy       800.7125484233 Hartrees.
 NAtoms=   13 NActive=   13 NUniq=   13 SFac= 1.00D+00 NAtFMM=   60 NAOKFM=F Big=F
 Integral buffers will be    131072 words long.
 Raffenetti 1 integral format.
 Two-electron integral symmetry is turned off.
 One-electron integrals computed using PRISM.
   1 Symmetry operations used in ECPInt.
 ECPInt:  NShTT=    3240 NPrTT=   15282 LenC2=    3061 LenP2D=    9666.
 LDataN:  DoStor=T MaxTD1= 4 Len=   56
 NBasis=   286 RedAO= T EigKep=  3.50D-06  NBF=   286
 NBsUse=   286 1.00D-06 EigRej= -1.00D+00 NBFU=   286
 Initial guess from the checkpoint file:  "CrCO6couple_N.chk"
 B after Tr=     0.000000    0.000000    0.000000
         Rot=    1.000000    0.000000    0.000000    0.000000 Ang=   0.00 deg.
 Requested convergence on RMS density matrix=1.00D-08 within 128 cycles.
 Requested convergence on MAX density matrix=1.00D-06.
 Requested convergence on             energy=1.00D-06.
 No special actions if energy rises.
 SCF Done:  E(RHF) =  -762.137199927     A.U. after   13 cycles
            NFock= 13  Conv=0.87D-09     -V/T= 2.0598
 ExpMin= 1.90D-02 ExpMax= 8.59D+03 ExpMxC= 1.30D+03 IAcc=3 IRadAn=         5 AccDes= 0.00D+00
 HarFok:  IExCor=  205 AccDes= 0.00D+00 IRadAn=         5 IDoV=-2 UseB2=F ITyADJ=14
 ICtDFT= 12500011 ScaDFX=  1.000000  1.000000  1.000000  1.000000
 Range of M.O.s used for correlation:    17   286
 NBasis=   286 NAE=    49 NBE=    49 NFC=    16 NFV=     0
 NROrb=    270 NOA=    33 NOB=    33 NVA=   237 NVB=   237

 **** Warning!!: The largest alpha MO coefficient is  0.19346871D+03

 Semi-Direct transformation.
 ModeAB=           4 MOrb=            33 LenV=    4293186453
 LASXX=    298925319 LTotXX=   298925319 LenRXX=   601193208
 LTotAB=   302267889 MaxLAS=   362325150 LenRXY=           0
 NonZer=   900118527 LenScr=  1355472896 LnRSAI=   362325150
 LnScr1=   545619968 LExtra=           0 Total=   2864611222
 MaxDsk=          -1 SrtSym=           T ITran=            4
 JobTyp=0 Pass  1:  I=   1 to  33.
 (rs|ai) integrals will be sorted in core.
 Spin components of T(2) and E(2):
     alpha-alpha T2 =       0.1338082537D+00 E2=     -0.3352296770D+00
     alpha-beta  T2 =       0.5927187302D+00 E2=     -0.1610545398D+01
     beta-beta   T2 =       0.1338082537D+00 E2=     -0.3352296770D+00
 ANorm=    0.1363941068D+01
 E2 =    -0.2281004752D+01 EUMP2 =    -0.76441820467883D+03
 Keep R2 and R3 ints in memory in canonical form, NReq=1698067295.
 CIDS: In Core Option IDoMem=           1.
 Iterations=  50 Convergence= 0.100D-07
 Produce multiple copies of IABC intergrals
 Iteration Nr.   1
 **********************
 DD1Dir will call FoFMem   1 times, MxPair=      1122
 NAB=   561 NAA=     0 NBB=     0.
 MP4(R+Q)=  0.17788357D-01
 E3=        0.26911799D+00        EUMP3=      -0.76414908668D+03
 E4(DQ)=   -0.20384820D+00        UMP4(DQ)=   -0.76435293489D+03
 E4(SDQ)=  -0.29100818D+00        UMP4(SDQ)=  -0.76444009487D+03
 DE(Corr)=  -1.9905734     E(Corr)=     -764.12777329    
 NORM(A)=   0.12975431D+01
 Iteration Nr.   2
 **********************
 DD1Dir will call FoFMem   1 times, MxPair=      1122
 NAB=   561 NAA=     0 NBB=     0.
 DE(Corr)=  -2.2020492     E(CORR)=     -764.33924912     Delta=-2.11D-01
 NORM(A)=   0.13444272D+01
 Iteration Nr.   3
 **********************
 DD1Dir will call FoFMem   1 times, MxPair=      1122
 NAB=   561 NAA=     0 NBB=     0.
 DE(Corr)=  -2.1505168     E(CORR)=     -764.28771668     Delta= 5.15D-02
 NORM(A)=   0.13612787D+01
 Iteration Nr.   4
 **********************
 DD1Dir will call FoFMem   1 times, MxPair=      1122
 NAB=   561 NAA=     0 NBB=     0.
 DE(Corr)=  -2.1723706     E(CORR)=     -764.30957048     Delta=-2.19D-02
 NORM(A)=   0.13695148D+01
 Iteration Nr.   5
 **********************
 DD1Dir will call FoFMem   1 times, MxPair=      1122
 NAB=   561 NAA=     0 NBB=     0.
 DE(Corr)=  -2.1753015     E(CORR)=     -764.31250141     Delta=-2.93D-03
 NORM(A)=   0.13732456D+01
 Iteration Nr.   6
 **********************
 DD1Dir will call FoFMem   1 times, MxPair=      1122
 NAB=   561 NAA=     0 NBB=     0.
 DE(Corr)=  -2.1755484     E(CORR)=     -764.31274832     Delta=-2.47D-04
 NORM(A)=   0.13744935D+01
 Iteration Nr.   7
 **********************
 DD1Dir will call FoFMem   1 times, MxPair=      1122
 NAB=   561 NAA=     0 NBB=     0.
 DE(Corr)=  -2.1757969     E(CORR)=     -764.31299682     Delta=-2.49D-04
 NORM(A)=   0.13745692D+01
 Iteration Nr.   8
 **********************
 DD1Dir will call FoFMem   1 times, MxPair=      1122
 NAB=   561 NAA=     0 NBB=     0.
 DE(Corr)=  -2.1760848     E(CORR)=     -764.31328477     Delta=-2.88D-04
 NORM(A)=   0.13746586D+01
 Iteration Nr.   9
 **********************
 DD1Dir will call FoFMem   1 times, MxPair=      1122
 NAB=   561 NAA=     0 NBB=     0.
 DE(Corr)=  -2.1757933     E(CORR)=     -764.31299326     Delta= 2.92D-04
 NORM(A)=   0.13746212D+01
 Iteration Nr.  10
 **********************
 DD1Dir will call FoFMem   1 times, MxPair=      1122
 NAB=   561 NAA=     0 NBB=     0.
 DE(Corr)=  -2.1759767     E(CORR)=     -764.31317665     Delta=-1.83D-04
 NORM(A)=   0.13746286D+01
 Iteration Nr.  11
 **********************
 DD1Dir will call FoFMem   1 times, MxPair=      1122
 NAB=   561 NAA=     0 NBB=     0.
 DE(Corr)=  -2.1759126     E(CORR)=     -764.31311258     Delta= 6.41D-05
 NORM(A)=   0.13746271D+01
 Iteration Nr.  12
 **********************
 DD1Dir will call FoFMem   1 times, MxPair=      1122
 NAB=   561 NAA=     0 NBB=     0.
 DE(Corr)=  -2.1759091     E(CORR)=     -764.31310898     Delta= 3.60D-06
 NORM(A)=   0.13746172D+01
 Iteration Nr.  13
 **********************
 DD1Dir will call FoFMem   1 times, MxPair=      1122
 NAB=   561 NAA=     0 NBB=     0.
 DE(Corr)=  -2.1759124     E(CORR)=     -764.31311237     Delta=-3.39D-06
 NORM(A)=   0.13746132D+01
 Iteration Nr.  14
 **********************
 DD1Dir will call FoFMem   1 times, MxPair=      1122
 NAB=   561 NAA=     0 NBB=     0.
 DE(Corr)=  -2.1759109     E(CORR)=     -764.31311086     Delta= 1.50D-06
 NORM(A)=   0.13746108D+01
 Iteration Nr.  15
 **********************
 DD1Dir will call FoFMem   1 times, MxPair=      1122
 NAB=   561 NAA=     0 NBB=     0.
 DE(Corr)=  -2.1759086     E(CORR)=     -764.31310857     Delta= 2.29D-06
 NORM(A)=   0.13746085D+01
 Iteration Nr.  16
 **********************
 DD1Dir will call FoFMem   1 times, MxPair=      1122
 NAB=   561 NAA=     0 NBB=     0.
 DE(Corr)=  -2.1759102     E(CORR)=     -764.31311014     Delta=-1.57D-06
 NORM(A)=   0.13746084D+01
 Iteration Nr.  17
 **********************
 DD1Dir will call FoFMem   1 times, MxPair=      1122
 NAB=   561 NAA=     0 NBB=     0.
 DE(Corr)=  -2.1759089     E(CORR)=     -764.31310884     Delta= 1.30D-06
 NORM(A)=   0.13746080D+01
 Iteration Nr.  18
 **********************
 DD1Dir will call FoFMem   1 times, MxPair=      1122
 NAB=   561 NAA=     0 NBB=     0.
 DE(Corr)=  -2.1759090     E(CORR)=     -764.31310897     Delta=-1.32D-07
 NORM(A)=   0.13746080D+01
 Iteration Nr.  19
 **********************
 DD1Dir will call FoFMem   1 times, MxPair=      1122
 NAB=   561 NAA=     0 NBB=     0.
 DE(Corr)=  -2.1759092     E(CORR)=     -764.31310910     Delta=-1.28D-07
 NORM(A)=   0.13746081D+01
 Iteration Nr.  20
 **********************
 DD1Dir will call FoFMem   1 times, MxPair=      1122
 NAB=   561 NAA=     0 NBB=     0.
 DE(Corr)=  -2.1759091     E(CORR)=     -764.31310899     Delta= 1.02D-07
 NORM(A)=   0.13746078D+01
 Iteration Nr.  21
 **********************
 DD1Dir will call FoFMem   1 times, MxPair=      1122
 NAB=   561 NAA=     0 NBB=     0.
 DE(Corr)=  -2.1759091     E(CORR)=     -764.31310898     Delta= 1.47D-08
 NORM(A)=   0.13746081D+01
 Iteration Nr.  22
 **********************
 DD1Dir will call FoFMem   1 times, MxPair=      1122
 NAB=   561 NAA=     0 NBB=     0.
 DE(Corr)=  -2.1759092     E(CORR)=     -764.31310908     Delta=-1.01D-07
 NORM(A)=   0.13746080D+01
 Iteration Nr.  23
 **********************
 DD1Dir will call FoFMem   1 times, MxPair=      1122
 NAB=   561 NAA=     0 NBB=     0.
 DE(Corr)=  -2.1759090     E(CORR)=     -764.31310896     Delta= 1.19D-07
 NORM(A)=   0.13746081D+01
 Iteration Nr.  24
 **********************
 DD1Dir will call FoFMem   1 times, MxPair=      1122
 NAB=   561 NAA=     0 NBB=     0.
 DE(Corr)=  -2.1759091     E(CORR)=     -764.31310907     Delta=-1.12D-07
 NORM(A)=   0.13746081D+01
 Iteration Nr.  25
 **********************
 DD1Dir will call FoFMem   1 times, MxPair=      1122
 NAB=   561 NAA=     0 NBB=     0.
 DE(Corr)=  -2.1759091     E(CORR)=     -764.31310898     Delta= 8.80D-08
 NORM(A)=   0.13746081D+01
 Iteration Nr.  26
 **********************
 DD1Dir will call FoFMem   1 times, MxPair=      1122
 NAB=   561 NAA=     0 NBB=     0.
 DE(Corr)=  -2.1759091     E(CORR)=     -764.31310906     Delta=-7.74D-08
 NORM(A)=   0.13746081D+01
 Iteration Nr.  27
 **********************
 DD1Dir will call FoFMem   1 times, MxPair=      1122
 NAB=   561 NAA=     0 NBB=     0.
 DE(Corr)=  -2.1759091     E(CORR)=     -764.31310900     Delta= 6.25D-08
 NORM(A)=   0.13746081D+01
 Iteration Nr.  28
 **********************
 DD1Dir will call FoFMem   1 times, MxPair=      1122
 NAB=   561 NAA=     0 NBB=     0.
 DE(Corr)=  -2.1759091     E(CORR)=     -764.31310905     Delta=-5.26D-08
 NORM(A)=   0.13746081D+01
 Iteration Nr.  29
 **********************
 DD1Dir will call FoFMem   1 times, MxPair=      1122
 NAB=   561 NAA=     0 NBB=     0.
 DE(Corr)=  -2.1759091     E(CORR)=     -764.31310901     Delta= 4.29D-08
 NORM(A)=   0.13746081D+01
 Iteration Nr.  30
 **********************
 DD1Dir will call FoFMem   1 times, MxPair=      1122
 NAB=   561 NAA=     0 NBB=     0.
 DE(Corr)=  -2.1759091     E(CORR)=     -764.31310904     Delta=-3.55D-08
 NORM(A)=   0.13746081D+01
 Iteration Nr.  31
 **********************
 DD1Dir will call FoFMem   1 times, MxPair=      1122
 NAB=   561 NAA=     0 NBB=     0.
 DE(Corr)=  -2.1759091     E(CORR)=     -764.31310902     Delta= 2.89D-08
 NORM(A)=   0.13746081D+01
 Iteration Nr.  32
 **********************
 DD1Dir will call FoFMem   1 times, MxPair=      1122
 NAB=   561 NAA=     0 NBB=     0.
 DE(Corr)=  -2.1759091     E(CORR)=     -764.31310904     Delta=-2.38D-08
 NORM(A)=   0.13746081D+01
 Iteration Nr.  33
 **********************
 DD1Dir will call FoFMem   1 times, MxPair=      1122
 NAB=   561 NAA=     0 NBB=     0.
 DE(Corr)=  -2.1759091     E(CORR)=     -764.31310902     Delta= 1.94D-08
 NORM(A)=   0.13746081D+01
 Iteration Nr.  34
 **********************
 DD1Dir will call FoFMem   1 times, MxPair=      1122
 NAB=   561 NAA=     0 NBB=     0.
 DE(Corr)=  -2.1759091     E(CORR)=     -764.31310904     Delta=-1.60D-08
 NORM(A)=   0.13746081D+01
 Iteration Nr.  35
 **********************
 DD1Dir will call FoFMem   1 times, MxPair=      1122
 NAB=   561 NAA=     0 NBB=     0.
 DE(Corr)=  -2.1759091     E(CORR)=     -764.31310902     Delta= 1.31D-08
 NORM(A)=   0.13746081D+01
 Iteration Nr.  36
 **********************
 DD1Dir will call FoFMem   1 times, MxPair=      1122
 NAB=   561 NAA=     0 NBB=     0.
 DE(Corr)=  -2.1759091     E(CORR)=     -764.31310903     Delta=-1.07D-08
 NORM(A)=   0.13746081D+01
 Iteration Nr.  37
 **********************
 DD1Dir will call FoFMem   1 times, MxPair=      1122
 NAB=   561 NAA=     0 NBB=     0.
 DE(Corr)=  -2.1759091     E(CORR)=     -764.31310902     Delta= 8.76D-09
 NORM(A)=   0.13746081D+01
 Wavefunction amplitudes converged. E(Corr)=     -764.31310902    
 Largest amplitude= 7.10D-02

 Z-amplitude iterations

 Iteration Nr.   1
 **********************
 DD1Dir will call FoFMem   1 times, MxPair=      1122
 NAB=   561 NAA=     0 NBB=     0.
 DE(Z)=  -2.1089898     E(Z)=     -764.24618973     Delta= 6.69D-02
 NORM(A)=   0.13727098D+01
 Iteration Nr.   2
 **********************
 DD1Dir will call FoFMem   1 times, MxPair=      1122
 NAB=   561 NAA=     0 NBB=     0.
 DE(Z)=  -2.1078356     E(Z)=     -764.24503550     Delta= 1.15D-03
 NORM(A)=   0.13793320D+01
 Iteration Nr.   3
 **********************
 DD1Dir will call FoFMem   1 times, MxPair=      1122
 NAB=   561 NAA=     0 NBB=     0.
 DE(Z)=  -2.1101980     E(Z)=     -764.24739795     Delta=-2.36D-03
 NORM(A)=   0.13678004D+01
 Iteration Nr.   4
 **********************
 DD1Dir will call FoFMem   1 times, MxPair=      1122
 NAB=   561 NAA=     0 NBB=     0.
 DE(Z)=  -2.1068012     E(Z)=     -764.24400117     Delta= 3.40D-03
 NORM(A)=   0.13973368D+01
 Iteration Nr.   5
 **********************
 DD1Dir will call FoFMem   1 times, MxPair=      1122
 NAB=   561 NAA=     0 NBB=     0.
 DE(Z)=  -2.1156891     E(Z)=     -764.25288902     Delta=-8.89D-03
 NORM(A)=   0.13238452D+01
 Iteration Nr.   6
 **********************
 DD1Dir will call FoFMem   1 times, MxPair=      1122
 NAB=   561 NAA=     0 NBB=     0.
 DE(Z)=  -2.0918313     E(Z)=     -764.22903118     Delta= 2.39D-02
 NORM(A)=   0.13237011D+01
 Iteration Nr.   7
 **********************
 DD1Dir will call FoFMem   1 times, MxPair=      1122
 NAB=   561 NAA=     0 NBB=     0.
 DE(Z)=  -2.0916137     E(Z)=     -764.22881364     Delta= 2.18D-04
 NORM(A)=   0.13236653D+01
 Iteration Nr.   8
 **********************
 DD1Dir will call FoFMem   1 times, MxPair=      1122
 NAB=   561 NAA=     0 NBB=     0.
 DE(Z)=  -2.0916443     E(Z)=     -764.22884420     Delta=-3.06D-05
 NORM(A)=   0.13235975D+01
 Iteration Nr.   9
 **********************
 DD1Dir will call FoFMem   1 times, MxPair=      1122
 NAB=   561 NAA=     0 NBB=     0.
 DE(Z)=  -2.0916660     E(Z)=     -764.22886596     Delta=-2.18D-05
 NORM(A)=   0.13235919D+01
 Iteration Nr.  10
 **********************
 DD1Dir will call FoFMem   1 times, MxPair=      1122
 NAB=   561 NAA=     0 NBB=     0.
 DE(Z)=  -2.0916392     E(Z)=     -764.22883913     Delta= 2.68D-05
 NORM(A)=   0.13235882D+01
 Iteration Nr.  11
 **********************
 DD1Dir will call FoFMem   1 times, MxPair=      1122
 NAB=   561 NAA=     0 NBB=     0.
 DE(Z)=  -2.0916490     E(Z)=     -764.22884892     Delta=-9.79D-06
 NORM(A)=   0.13235895D+01
 Iteration Nr.  12
 **********************
 DD1Dir will call FoFMem   1 times, MxPair=      1122
 NAB=   561 NAA=     0 NBB=     0.
 DE(Z)=  -2.0916471     E(Z)=     -764.22884703     Delta= 1.89D-06
 NORM(A)=   0.13235893D+01
 Iteration Nr.  13
 **********************
 DD1Dir will call FoFMem   1 times, MxPair=      1122
 NAB=   561 NAA=     0 NBB=     0.
 DE(Z)=  -2.0916474     E(Z)=     -764.22884737     Delta=-3.38D-07
 NORM(A)=   0.13235894D+01
 Iteration Nr.  14
 **********************
 DD1Dir will call FoFMem   1 times, MxPair=      1122
 NAB=   561 NAA=     0 NBB=     0.
 DE(Z)=  -2.0916478     E(Z)=     -764.22884772     Delta=-3.56D-07
 NORM(A)=   0.13235893D+01
 Iteration Nr.  15
 **********************
 DD1Dir will call FoFMem   1 times, MxPair=      1122
 NAB=   561 NAA=     0 NBB=     0.
 DE(Z)=  -2.0916476     E(Z)=     -764.22884750     Delta= 2.25D-07
 NORM(A)=   0.13235893D+01
 Iteration Nr.  16
 **********************
 DD1Dir will call FoFMem   1 times, MxPair=      1122
 NAB=   561 NAA=     0 NBB=     0.
 DE(Z)=  -2.0916477     E(Z)=     -764.22884767     Delta=-1.69D-07
 NORM(A)=   0.13235893D+01
 Iteration Nr.  17
 **********************
 DD1Dir will call FoFMem   1 times, MxPair=      1122
 NAB=   561 NAA=     0 NBB=     0.
 DE(Z)=  -2.0916475     E(Z)=     -764.22884738     Delta= 2.82D-07
 NORM(A)=   0.13235893D+01
 Iteration Nr.  18
 **********************
 DD1Dir will call FoFMem   1 times, MxPair=      1122
 NAB=   561 NAA=     0 NBB=     0.
 DE(Z)=  -2.0916477     E(Z)=     -764.22884767     Delta=-2.90D-07
 NORM(A)=   0.13235893D+01
 Iteration Nr.  19
 **********************
 DD1Dir will call FoFMem   1 times, MxPair=      1122
 NAB=   561 NAA=     0 NBB=     0.
 DE(Z)=  -2.0916475     E(Z)=     -764.22884743     Delta= 2.41D-07
 NORM(A)=   0.13235893D+01
 Iteration Nr.  20
 **********************
 DD1Dir will call FoFMem   1 times, MxPair=      1122
 NAB=   561 NAA=     0 NBB=     0.
 DE(Z)=  -2.0916477     E(Z)=     -764.22884765     Delta=-2.17D-07
 NORM(A)=   0.13235893D+01
 Iteration Nr.  21
 **********************
 DD1Dir will call FoFMem   1 times, MxPair=      1122
 NAB=   561 NAA=     0 NBB=     0.
 DE(Z)=  -2.0916475     E(Z)=     -764.22884746     Delta= 1.86D-07
 NORM(A)=   0.13235893D+01
 Iteration Nr.  22
 **********************
 DD1Dir will call FoFMem   1 times, MxPair=      1122
 NAB=   561 NAA=     0 NBB=     0.
 DE(Z)=  -2.0916477     E(Z)=     -764.22884764     Delta=-1.71D-07
 NORM(A)=   0.13235893D+01
 Iteration Nr.  23
 **********************
 DD1Dir will call FoFMem   1 times, MxPair=      1122
 NAB=   561 NAA=     0 NBB=     0.
 DE(Z)=  -2.0916476     E(Z)=     -764.22884749     Delta= 1.43D-07
 NORM(A)=   0.13235893D+01
 Iteration Nr.  24
 **********************
 DD1Dir will call FoFMem   1 times, MxPair=      1122
 NAB=   561 NAA=     0 NBB=     0.
 DE(Z)=  -2.0916477     E(Z)=     -764.22884761     Delta=-1.22D-07
 NORM(A)=   0.13235893D+01
 Iteration Nr.  25
 **********************
 DD1Dir will call FoFMem   1 times, MxPair=      1122
 NAB=   561 NAA=     0 NBB=     0.
 DE(Z)=  -2.0916476     E(Z)=     -764.22884751     Delta= 9.95D-08
 NORM(A)=   0.13235893D+01
 Iteration Nr.  26
 **********************
 DD1Dir will call FoFMem   1 times, MxPair=      1122
 NAB=   561 NAA=     0 NBB=     0.
 DE(Z)=  -2.0916477     E(Z)=     -764.22884760     Delta=-8.27D-08
 NORM(A)=   0.13235893D+01
 Iteration Nr.  27
 **********************
 DD1Dir will call FoFMem   1 times, MxPair=      1122
 NAB=   561 NAA=     0 NBB=     0.
 DE(Z)=  -2.0916476     E(Z)=     -764.22884753     Delta= 6.77D-08
 NORM(A)=   0.13235893D+01
 Iteration Nr.  28
 **********************
 DD1Dir will call FoFMem   1 times, MxPair=      1122
 NAB=   561 NAA=     0 NBB=     0.
 DE(Z)=  -2.0916477     E(Z)=     -764.22884759     Delta=-5.59D-08
 NORM(A)=   0.13235893D+01
 Iteration Nr.  29
 **********************
 DD1Dir will call FoFMem   1 times, MxPair=      1122
 NAB=   561 NAA=     0 NBB=     0.
 DE(Z)=  -2.0916476     E(Z)=     -764.22884754     Delta= 4.58D-08
 NORM(A)=   0.13235893D+01
 Iteration Nr.  30
 **********************
 DD1Dir will call FoFMem   1 times, MxPair=      1122
 NAB=   561 NAA=     0 NBB=     0.
 DE(Z)=  -2.0916477     E(Z)=     -764.22884758     Delta=-3.77D-08
 NORM(A)=   0.13235893D+01
 Iteration Nr.  31
 **********************
 DD1Dir will call FoFMem   1 times, MxPair=      1122
 NAB=   561 NAA=     0 NBB=     0.
 DE(Z)=  -2.0916476     E(Z)=     -764.22884755     Delta= 3.10D-08
 NORM(A)=   0.13235893D+01
 Iteration Nr.  32
 **********************
 DD1Dir will call FoFMem   1 times, MxPair=      1122
 NAB=   561 NAA=     0 NBB=     0.
 DE(Z)=  -2.0916476     E(Z)=     -764.22884757     Delta=-2.55D-08
 NORM(A)=   0.13235893D+01
 Iteration Nr.  33
 **********************
 DD1Dir will call FoFMem   1 times, MxPair=      1122
 NAB=   561 NAA=     0 NBB=     0.
 DE(Z)=  -2.0916476     E(Z)=     -764.22884755     Delta= 2.09D-08
 NORM(A)=   0.13235893D+01
 Iteration Nr.  34
 **********************
 DD1Dir will call FoFMem   1 times, MxPair=      1122
 NAB=   561 NAA=     0 NBB=     0.
 DE(Z)=  -2.0916476     E(Z)=     -764.22884757     Delta=-1.72D-08
 NORM(A)=   0.13235893D+01
 Iteration Nr.  35
 **********************
 DD1Dir will call FoFMem   1 times, MxPair=      1122
 NAB=   561 NAA=     0 NBB=     0.
 DE(Z)=  -2.0916476     E(Z)=     -764.22884755     Delta= 1.41D-08
 NORM(A)=   0.13235893D+01
 Iteration Nr.  36
 **********************
 DD1Dir will call FoFMem   1 times, MxPair=      1122
 NAB=   561 NAA=     0 NBB=     0.
 DE(Z)=  -2.0916476     E(Z)=     -764.22884757     Delta=-1.16D-08
 NORM(A)=   0.13235893D+01
 Iteration Nr.  37
 **********************
 DD1Dir will call FoFMem   1 times, MxPair=      1122
 NAB=   561 NAA=     0 NBB=     0.
 DE(Z)=  -2.0916476     E(Z)=     -764.22884756     Delta= 9.58D-09
 NORM(A)=   0.13235893D+01
 Z-amplitudes converged.
 Discarding MO integrals.
          Differentiating once with respect to electric field.
                with respect to dipole field.
          Electric field/nuclear overlap derivatives assumed to be zero.
          There are     1 degrees of freedom in the 1st order CPHF.  IDoFFX=0 NUNeed=     1.
 LinEq1:  Iter=  0 NonCon=     1 RMS=4.18D-03 Max=9.65D-02 NDo=     1
 AX will form     1 AO Fock derivatives at one time.
 LinEq1:  Iter=  1 NonCon=     1 RMS=1.40D-03 Max=5.18D-02 NDo=     1
 LinEq1:  Iter=  2 NonCon=     1 RMS=1.05D-03 Max=4.09D-02 NDo=     1
 LinEq1:  Iter=  3 NonCon=     1 RMS=8.98D-04 Max=2.79D-02 NDo=     1
 LinEq1:  Iter=  4 NonCon=     1 RMS=4.67D-04 Max=6.57D-03 NDo=     1
 LinEq1:  Iter=  5 NonCon=     1 RMS=9.13D-05 Max=1.43D-03 NDo=     1
 LinEq1:  Iter=  6 NonCon=     1 RMS=1.39D-05 Max=2.53D-04 NDo=     1
 LinEq1:  Iter=  7 NonCon=     1 RMS=1.88D-06 Max=2.31D-05 NDo=     1
 LinEq1:  Iter=  8 NonCon=     1 RMS=2.96D-07 Max=5.88D-06 NDo=     1
 LinEq1:  Iter=  9 NonCon=     1 RMS=3.38D-08 Max=6.97D-07 NDo=     1
 LinEq1:  Iter= 10 NonCon=     1 RMS=3.85D-09 Max=7.31D-08 NDo=     1
 LinEq1:  Iter= 11 NonCon=     1 RMS=3.46D-10 Max=6.70D-09 NDo=     1
 LinEq1:  Iter= 12 NonCon=     0 RMS=2.60D-11 Max=4.69D-10 NDo=     1
 Linear equations converged to 1.000D-10 1.000D-09 after    12 iterations.
 End of Minotr F.D. properties file   721 does not exist.
 End of Minotr F.D. properties file   722 does not exist.
 End of Minotr F.D. properties file   788 does not exist.

 **********************************************************************

            Population analysis using the CC Density.

 **********************************************************************

 Alpha  occ. eigenvalues --  -20.66834 -20.66834 -20.66834 -20.66834 -20.66834
 Alpha  occ. eigenvalues --  -20.66834 -11.38824 -11.38823 -11.38823 -11.38823
 Alpha  occ. eigenvalues --  -11.38822 -11.38822  -3.47669  -2.24981  -2.24981
 Alpha  occ. eigenvalues --   -2.24981  -1.52895  -1.52776  -1.52776  -1.52776
 Alpha  occ. eigenvalues --   -1.52737  -1.52737  -0.85850  -0.81446  -0.81446
 Alpha  occ. eigenvalues --   -0.81446  -0.80996  -0.80996  -0.73040  -0.66959
 Alpha  occ. eigenvalues --   -0.66959  -0.66959  -0.66956  -0.66956  -0.66956
 Alpha  occ. eigenvalues --   -0.64814  -0.64814  -0.64814  -0.64112  -0.64112
 Alpha  occ. eigenvalues --   -0.64112  -0.61662  -0.61662  -0.59863  -0.59863
 Alpha  occ. eigenvalues --   -0.59863  -0.35777  -0.35777  -0.35777
 Alpha virt. eigenvalues --    0.03713   0.03713   0.03713   0.04418   0.09268
 Alpha virt. eigenvalues --    0.09268   0.09268   0.10177   0.10177   0.11470
 Alpha virt. eigenvalues --    0.11470   0.11470   0.13270   0.13270   0.13270
 Alpha virt. eigenvalues --    0.13606   0.13606   0.13606   0.14803   0.14803
 Alpha virt. eigenvalues --    0.14803   0.15775   0.15775   0.15775   0.16187
 Alpha virt. eigenvalues --    0.16194   0.16194   0.16194   0.17726   0.17726
 Alpha virt. eigenvalues --    0.17726   0.21109   0.21109   0.22552   0.22552
 Alpha virt. eigenvalues --    0.22552   0.25789   0.25789   0.25789   0.29648
 Alpha virt. eigenvalues --    0.30452   0.30452   0.37178   0.37178   0.37178
 Alpha virt. eigenvalues --    0.38328   0.38328   0.38328   0.38442   0.38442
 Alpha virt. eigenvalues --    0.39769   0.39769   0.39769   0.40387   0.40387
 Alpha virt. eigenvalues --    0.40387   0.42626   0.42626   0.44987   0.44987
 Alpha virt. eigenvalues --    0.44987   0.47097   0.48076   0.48076   0.48076
 Alpha virt. eigenvalues --    0.53993   0.53993   0.53993   0.55026   0.67501
 Alpha virt. eigenvalues --    0.67501   0.67501   0.69513   0.71855   0.71855
 Alpha virt. eigenvalues --    0.71855   0.75149   0.75149   0.75149   0.80917
 Alpha virt. eigenvalues --    0.80917   0.84299   0.84299   0.91883   0.92033
 Alpha virt. eigenvalues --    0.92033   0.92033   0.93319   0.93319   0.93319
 Alpha virt. eigenvalues --    0.93478   0.93478   0.93478   1.01540   1.01540
 Alpha virt. eigenvalues --    1.01540   1.10840   1.10840   1.14204   1.27565
 Alpha virt. eigenvalues --    1.27565   1.27565   1.31825   1.31825   1.31825
 Alpha virt. eigenvalues --    1.33575   1.33575   1.33575   1.34698   1.34698
 Alpha virt. eigenvalues --    1.39135   1.39135   1.39135   1.43500   1.43630
 Alpha virt. eigenvalues --    1.45882   1.45882   1.45882   1.45954   1.45954
 Alpha virt. eigenvalues --    1.45954   1.49704   1.49704   1.50694   1.50694
 Alpha virt. eigenvalues --    1.50694   1.54688   1.56476   1.56476   1.56476
 Alpha virt. eigenvalues --    1.63389   1.63389   1.64678   1.64678   1.64678
 Alpha virt. eigenvalues --    1.72140   1.72140   1.72140   1.74150   1.74150
 Alpha virt. eigenvalues --    1.74150   1.74419   1.87481   1.87481   1.99033
 Alpha virt. eigenvalues --    1.99033   1.99033   2.06724   2.06724   2.13851
 Alpha virt. eigenvalues --    2.13851   2.13851   2.41113   2.41113   2.41113
 Alpha virt. eigenvalues --    2.75988   2.79172   2.79172   3.03179   3.03179
 Alpha virt. eigenvalues --    3.03179   3.08804   3.08804   3.08804   3.13419
 Alpha virt. eigenvalues --    3.13419   3.13419   3.15222   3.15590   3.15590
 Alpha virt. eigenvalues --    3.15929   3.16782   3.16782   3.16782   3.16795
 Alpha virt. eigenvalues --    3.16795   3.16795   3.16995   3.16995   3.24285
 Alpha virt. eigenvalues --    3.24285   3.24285   3.67993   3.67993   3.67993
 Alpha virt. eigenvalues --    3.75406   3.75406   3.75406   3.77151   3.77151
 Alpha virt. eigenvalues --    3.77151   3.80257   3.80257   3.80257   3.80390
 Alpha virt. eigenvalues --    3.80390   3.80390   3.83894   3.84918   3.84918
 Alpha virt. eigenvalues --    4.15245   4.19221   4.19221   4.19221   4.21752
 Alpha virt. eigenvalues --    4.21752   5.54796   5.54796   5.54796   5.56208
 Alpha virt. eigenvalues --    5.56208   5.56208   5.64520   5.64520   5.64520
 Alpha virt. eigenvalues --    5.65668   5.65668   5.65668   6.17328   6.17328
 Alpha virt. eigenvalues --    6.17577   6.20374   6.20374   6.20374  24.95166
 Alpha virt. eigenvalues --   25.01348  25.01348  25.02276  25.02276  25.02276
 Alpha virt. eigenvalues --   51.56029  51.57833  51.57833  51.57833  51.69740
 Alpha virt. eigenvalues --   51.69740  73.07958
          Condensed to atoms (all electrons):
               1          2          3          4          5          6
     1  Cr 101.576133 -15.628463 -15.628464 -15.628464 -15.628464 -15.628464
     2  C  -15.628463  11.993273   0.833258   2.381841   2.381842   2.381841
     3  C  -15.628464   0.833258  11.993274   2.381842   2.381842   2.381842
     4  C  -15.628464   2.381841   2.381842  11.993273   0.833258   2.381842
     5  C  -15.628464   2.381842   2.381842   0.833258  11.993273   2.381842
     6  C  -15.628464   2.381841   2.381842   2.381842   2.381842  11.993273
     7  C  -15.628464   2.381842   2.381842   2.381842   2.381842   0.833258
     8  O    0.483171  -0.145778  -0.014107  -0.041342  -0.041342  -0.041342
     9  O    0.483171  -0.014107  -0.145778  -0.041342  -0.041342  -0.041342
    10  O    0.483171  -0.041342  -0.041342  -0.145778  -0.014107  -0.041342
    11  O    0.483171  -0.041342  -0.041342  -0.014107  -0.145778  -0.041342
    12  O    0.483171  -0.041342  -0.041342  -0.041342  -0.041342  -0.145778
    13  O    0.483171  -0.041342  -0.041342  -0.041342  -0.041342  -0.014107
               7          8          9         10         11         12
     1  Cr -15.628464   0.483171   0.483171   0.483171   0.483171   0.483171
     2  C    2.381842  -0.145778  -0.014107  -0.041342  -0.041342  -0.041342
     3  C    2.381842  -0.014107  -0.145778  -0.041342  -0.041342  -0.041342
     4  C    2.381842  -0.041342  -0.041342  -0.145778  -0.014107  -0.041342
     5  C    2.381842  -0.041342  -0.041342  -0.014107  -0.145778  -0.041342
     6  C    0.833258  -0.041342  -0.041342  -0.041342  -0.041342  -0.145778
     7  C   11.993274  -0.041342  -0.041342  -0.041342  -0.041342  -0.014107
     8  O   -0.041342   7.996732  -0.000652  -0.001228  -0.001228  -0.001228
     9  O   -0.041342  -0.000652   7.996732  -0.001228  -0.001228  -0.001228
    10  O   -0.041342  -0.001228  -0.001228   7.996732  -0.000652  -0.001228
    11  O   -0.041342  -0.001228  -0.001228  -0.000652   7.996732  -0.001228
    12  O   -0.014107  -0.001228  -0.001228  -0.001228  -0.001228   7.996732
    13  O   -0.145778  -0.001228  -0.001228  -0.001228  -0.001228  -0.000652
              13
     1  Cr   0.483171
     2  C   -0.041342
     3  C   -0.041342
     4  C   -0.041342
     5  C   -0.041342
     6  C   -0.014107
     7  C   -0.145778
     8  O   -0.001228
     9  O   -0.001228
    10  O   -0.001228
    11  O   -0.001228
    12  O   -0.000652
    13  O    7.996732
 Mulliken charges:
               1
     1  Cr   3.295622
     2  C   -0.400182
     3  C   -0.400183
     4  C   -0.400183
     5  C   -0.400183
     6  C   -0.400183
     7  C   -0.400183
     8  O   -0.149088
     9  O   -0.149088
    10  O   -0.149088
    11  O   -0.149088
    12  O   -0.149088
    13  O   -0.149088
 Sum of Mulliken charges =  -0.00000
 Mulliken charges with hydrogens summed into heavy atoms:
               1
     1  Cr   3.295622
     2  C   -0.400182
     3  C   -0.400183
     4  C   -0.400183
     5  C   -0.400183
     6  C   -0.400183
     7  C   -0.400183
     8  O   -0.149088
     9  O   -0.149088
    10  O   -0.149088
    11  O   -0.149088
    12  O   -0.149088
    13  O   -0.149088
 Electronic spatial extent (au):  <R**2>=           2251.3867
 Charge=             -0.0000 electrons
 Dipole moment (field-independent basis, Debye):
    X=             -0.0000    Y=              0.0000    Z=              0.0000  Tot=              0.0000
 Quadrupole moment (field-independent basis, Debye-Ang):
   XX=            -84.0931   YY=            -84.0931   ZZ=            -84.0931
   XY=             -0.0000   XZ=             -0.0000   YZ=              0.0000
 Traceless Quadrupole moment (field-independent basis, Debye-Ang):
   XX=             -0.0000   YY=             -0.0000   ZZ=              0.0000
   XY=             -0.0000   XZ=             -0.0000   YZ=              0.0000
 Octapole moment (field-independent basis, Debye-Ang**2):
  XXX=              0.0000  YYY=              0.0000  ZZZ=              0.0000  XYY=             -0.0000
  XXY=              0.0000  XXZ=              0.0000  XZZ=             -0.0000  YZZ=              0.0000
  YYZ=             -0.0000  XYZ=              0.0000
 Hexadecapole moment (field-independent basis, Debye-Ang**3):
 XXXX=          -1017.5268 YYYY=          -1017.5268 ZZZZ=          -1017.5268 XXXY=              0.0000
 XXXZ=             -0.0000 YYYX=             -0.0000 YYYZ=              0.0000 ZZZX=             -0.0000
 ZZZY=             -0.0000 XXYY=           -290.2609 XXZZ=           -290.2609 YYZZ=           -290.2609
 XXYZ=              0.0000 YYXZ=             -0.0000 ZZXY=              0.0000
 N-N= 8.007125484233D+02 E-N=-3.387997370906D+03  KE= 7.215758433107D+02
 1\1\GINC-N003\SP\RCCSD-FC\Gen\C6Cr1O6\JORGE\31-Jan-2021\0\\# CCSD/ChkB
 asis NoSymm Guess=Read Geom=Check Density=Current\\Single point at the
  CCSD/GenECP/6-31+G(d) level of theory of geometrically optimized Cr(C
 O)6 at the CAM-B3LYP/GenECP/6-31+G(d) level of theory\\0,1\Cr,0,0.,-0.
 0000000032,0.\C,0,1.913598115,-0.0000000001,-0.0000000001\C,0,-1.91359
 8115,-0.0000000001,0.\C,0,0.,1.9135981151,0.0000000001\C,0,0.,-1.91359
 81151,0.0000000001\C,0,0.,-0.0000000001,1.9135981154\C,0,0.,-0.0000000
 001,-1.9135981155\O,0,3.0485736889,0.0000000023,-0.0000000002\O,0,-3.0
 48573689,0.0000000023,-0.0000000002\O,0,0.,3.0485736881,0.0000000003\O
 ,0,0.,-3.0485736899,0.0000000003\O,0,0.,0.0000000005,3.0485736891\O,0,
 0.,0.0000000005,-3.0485736892\\Version=ES64L-G16RevB.01\HF=-762.137199
 9\MP2=-764.4182047\MP3=-764.1490867\MP4D=-764.3707232\MP4DQ=-764.35293
 49\MP4SDQ=-764.4400949\CCSD=-764.313109\RMSD=8.674e-10\Dipole=0.,0.,0.
 \Quadrupole=0.,0.,0.,0.,0.,0.\PG=OH [O(Cr1),3C4(O1C1.C1O1)]\\@


                                                                                    A
                                                                                  AA
                                                                                 AAA
                                                                                AAAA
                                                                               AAAAA
                                                                              AAAAAA   KKKKKKKK
                                                                             AAAAAAA   KKKKKKKK
                                                                            AAAAAAAA   KKKKKKKK
                                       ZZZZZZZZZZZZZZZZZZZZ                AAAA  AAA   KKKKKKKK
                                       ZZZZZZZZZZZZZZZZZZZ                AAAA   AAA   KKKKKKKK          K
                                       ZZZZZZZZZZZZZZZZZZ                AAAA    AAA   KKKKKKKK         KKK
                                       ZZZZZZZZZZZZZZZZZ                AAAA     AAA   KKKKKKKK        KKKKK
                                       ZZZZZZZZZZZZZZZZ                AAAA      AAA   KKKKKKKK       KKKKKKK
                                                ZZZZZZ                AAAA       AAA   KKKKKKKK      KKKKKKK
                                               ZZZZZZ                AAAA        AAA   KKKKKKKK     KKKKKKK
                                              ZZZZZZ                AAAA         AAA   KKKKKKKK    KKKKKKK
                                             ZZZZZZ                AAAA          AAA   KKKKKKKK   KKKKKKK
                                            ZZZZZZ                AAAAAAAAAAAAAAAAAA   KKKKKKKK  KKKKKKK
                                           ZZZZZZ                AAAAAAAAAAAAAAAAAAA   KKKKKKKK KKKKKKK
                                          ZZZZZZ                AAAAAAAAAAAAAAAAAAAA   KKKKKKKKKKKKKKK
                                         ZZZZZZ                AAAAAAAAAAAAAAAAAAAAA   KKKKKKKKKKKKKK
                                        ZZZZZZ                AAAAAA        AAAAAAAA   KKKKKKKKKKKKK
                                       ZZZZZZ                AAAAAA         AAAAAAAA   KKKKKKKKKKKK
                                      ZZZZZZ                AAAAAA          AAAAAAAA   KKKKKKKKKKK
                                     ZZZZZZ                AAAAAA           AAAAAAAA   KKKKKKKKKKKK
                                    ZZZZZZ                AAAAAA            AAAAAAAA   KKKKKKKKKKKKK
                                   ZZZZZZ                AAAAAA             AAAAAAAA   KKKKKKKKKKKKKK
                                  ZZZZZZ                AAAAAA              AAAAAAAA   KKKKKKKKKKKKKKK
                                 ZZZZZZ                AAAAAA               AAAAAAAA   KKKKK KKKKKKKKKK
                                ZZZZZZ                AAAAAA                AAAAAAAA   KKKKK  KKKKKKKKKK
                               ZZZZZZ                AAAAAA                            KKKKK   KKKKKKKKKK
                              ZZZZZZ                AAAAAA                             KKKKK    KKKKKKKKKK
                             ZZZZZZ                                                    KKKKK     KKKKKKKKKK
                            ZZZZZZ                                                     KKKKK      KKKKKKKKKK
                           ZZZZZZ                                                      KKKKK       KKKKKKKKKK
                          ZZZZZZ                                                       KKKKK        KKKKKKKKKK
                         ZZZZZZZZZZZZZZZZZZZZZZZZZZZZZZZZZZZZZZZZ                      KKKKK         KKKKKKKKKK
                        ZZZZZZZZZZZZZZZZZZZZZZZZZZZZZZZZZZZZZZZZZ                      KKKKK          KKKKKKKKKK
                       ZZZZZZZZZZZZZZZZZZZZZZZZZZZZZZZZZZZZZZZZZZ                      KKKKK           KKKKKKKKKK
                       ZZZZZZZZZZZZZZZZZZZZZZZZZZZZZZZZZZZZZZZZZZ                      KKKKK            KKKKKKKKKK
                       ZZZZZZZZZZZZZZZZZZZZZZZZZZZZZZZZZZZZZZZZZZ                      KKKKK             KKKKKKKKKK
                       ZZZZZZZZZZZZZZZZZZZZZZZZZZZZZZZZZZZZZZZZZZ                      KKKKK              KKKKKKKKKK
                       ZZZZZZZZZZZZZZZZZZZZZZZZZZZZZZZZZZZZZZZZZZ                      KKKKK               KKKKKKKKKK
                       ZZZZZZZZZZZZZZZZZZZZZZZZZZZZZZZZZZZZZZZZZZ                      KKKKK                KKKKKKKKKK
                       ZZZZZZZZZZZZZZZZZZZZZZZZZZZZZZZZZZZZZZZZZZ                      KKKKK
                                                                                       KKKKK
                                                                                          (J.P.)
 Job cpu time:       2 days  4 hours 17 minutes 25.9 seconds.
 Elapsed time:       0 days  3 hours 19 minutes 21.5 seconds.
 File lengths (MBytes):  RWF=  82980 Int=      0 D2E=      0 Chk=      9 Scr=      1
 Normal termination of Gaussian 16 at Sun Jan 31 23:26:27 2021.
