 Entering Gaussian System, Link 0=g16
 Initial command:
 /opt/g16/l1.exe "/scratch/1474/Gau-437510.inp" -scrdir="/scratch/1474/"
 Entering Link 1 = /opt/g16/l1.exe PID=    437511.
  
 Copyright (c) 1988-2017, Gaussian, Inc.  All Rights Reserved.
  
 This is part of the Gaussian(R) 16 program.  It is based on
 the Gaussian(R) 09 system (copyright 2009, Gaussian, Inc.),
 the Gaussian(R) 03 system (copyright 2003, Gaussian, Inc.),
 the Gaussian(R) 98 system (copyright 1998, Gaussian, Inc.),
 the Gaussian(R) 94 system (copyright 1995, Gaussian, Inc.),
 the Gaussian 92(TM) system (copyright 1992, Gaussian, Inc.),
 the Gaussian 90(TM) system (copyright 1990, Gaussian, Inc.),
 the Gaussian 88(TM) system (copyright 1988, Gaussian, Inc.),
 the Gaussian 86(TM) system (copyright 1986, Carnegie Mellon
 University), and the Gaussian 82(TM) system (copyright 1983,
 Carnegie Mellon University). Gaussian is a federally registered
 trademark of Gaussian, Inc.
  
 This software contains proprietary and confidential information,
 including trade secrets, belonging to Gaussian, Inc.
  
 This software is provided under written license and may be
 used, copied, transmitted, or stored only in accord with that
 written license.
  
 The following legend is applicable only to US Government
 contracts under FAR:
  
                    RESTRICTED RIGHTS LEGEND
  
 Use, reproduction and disclosure by the US Government is
 subject to restrictions as set forth in subparagraphs (a)
 and (c) of the Commercial Computer Software - Restricted
 Rights clause in FAR 52.227-19.
  
 Gaussian, Inc.
 340 Quinnipiac St., Bldg. 40, Wallingford CT 06492
  
  
 ---------------------------------------------------------------
 Warning -- This program may not be used in any manner that
 competes with the business of Gaussian, Inc. or will provide
 assistance to any competitor of Gaussian, Inc.  The licensee
 of this program is prohibited from giving any competitor of
 Gaussian, Inc. access to this program.  By using this program,
 the user acknowledges that Gaussian, Inc. is engaged in the
 business of creating and licensing software in the field of
 computational chemistry and represents and warrants to the
 licensee that it is not a competitor of Gaussian, Inc. and that
 it will not use this program in any manner prohibited above.
 ---------------------------------------------------------------
  

 Cite this work as:
 Gaussian 16, Revision B.01,
 M. J. Frisch, G. W. Trucks, H. B. Schlegel, G. E. Scuseria, 
 M. A. Robb, J. R. Cheeseman, G. Scalmani, V. Barone, 
 G. A. Petersson, H. Nakatsuji, X. Li, M. Caricato, A. V. Marenich, 
 J. Bloino, B. G. Janesko, R. Gomperts, B. Mennucci, H. P. Hratchian, 
 J. V. Ortiz, A. F. Izmaylov, J. L. Sonnenberg, D. Williams-Young, 
 F. Ding, F. Lipparini, F. Egidi, J. Goings, B. Peng, A. Petrone, 
 T. Henderson, D. Ranasinghe, V. G. Zakrzewski, J. Gao, N. Rega, 
 G. Zheng, W. Liang, M. Hada, M. Ehara, K. Toyota, R. Fukuda, 
 J. Hasegawa, M. Ishida, T. Nakajima, Y. Honda, O. Kitao, H. Nakai, 
 T. Vreven, K. Throssell, J. A. Montgomery, Jr., J. E. Peralta, 
 F. Ogliaro, M. J. Bearpark, J. J. Heyd, E. N. Brothers, K. N. Kudin, 
 V. N. Staroverov, T. A. Keith, R. Kobayashi, J. Normand, 
 K. Raghavachari, A. P. Rendell, J. C. Burant, S. S. Iyengar, 
 J. Tomasi, M. Cossi, J. M. Millam, M. Klene, C. Adamo, R. Cammi, 
 J. W. Ochterski, R. L. Martin, K. Morokuma, O. Farkas, 
 J. B. Foresman, and D. J. Fox, Gaussian, Inc., Wallingford CT, 2016.
 
 ******************************************
 Gaussian 16:  ES64L-G16RevB.01 20-Dec-2017
                 2-Feb-2021 
 ******************************************
 %OldChk=CrCO6_opt.chk
 %chk=CrCO6couple_N+1.chk
 %mem=32GB
 %nprocshared=16
 Will use up to   16 processors via shared memory.
 Copying data from "CrCO6_opt.chk" to current chk file "CrCO6couple_N+1.chk"
 IOpt=  2 FromEx=T IUOpen= 4 IOptOp= 5 NList=   0 IFRang= 0 IUIn= 4 IUOut= 2.
 -------------------------------------------------------------
 # UCCSD/ChkBasis NoSymm Guess=Read Geom=Check Density=Current
 -------------------------------------------------------------
 1/29=2,30=1,38=1,172=1/1;
 2/12=2,15=1,40=1/2;
 3/5=7,6=2,11=2,14=-4,25=1,30=1,67=1,71=1,116=2/1,2,3;
 4/5=1/1;
 5/5=2,38=6/2;
 8/6=4,9=120000,10=1/1,4;
 9/5=7,15=1/13;
 11/28=-8,31=1,32=3,42=3/11;
 10/5=6,13=10,31=1/2;
 6/7=2,8=2,9=2,10=2,22=-1/1;
 99/5=1,9=1/99;
 ----------------------------------------------------------------------
 Single point of Cr(CO)6^-1 at the UCCSD/GenECP/6-31+G(d) level of theo
 ry of geometrically optimized Cr(CO)6 at the CAM-B3LYP/GenECP/6-31+G(d
 ) level of theory
 ----------------------------------------------------------------------
 Structure from the checkpoint file:  "CrCO6couple_N+1.chk"
 Charge = -1 Multiplicity = 2
 Redundant internal coordinates found in file.  (old form).
 Cr,0,0.,-0.0000000032,0.
 C,0,1.913598115,-0.0000000001,-0.0000000001
 C,0,-1.913598115,-0.0000000001,0.
 C,0,0.,1.9135981151,0.0000000001
 C,0,0.,-1.9135981151,0.0000000001
 C,0,0.,-0.0000000001,1.9135981154
 C,0,0.,-0.0000000001,-1.9135981155
 O,0,3.0485736889,0.0000000023,-0.0000000002
 O,0,-3.048573689,0.0000000023,-0.0000000002
 O,0,0.,3.0485736881,0.0000000003
 O,0,0.,-3.0485736899,0.0000000003
 O,0,0.,0.0000000005,3.0485736891
 O,0,0.,0.0000000005,-3.0485736892
 Recover connectivity data from disk.
                           ----------------------------
                           !    Current Parameters    !
                           ! (Angstroms and Degrees)  !
 --------------------------                            --------------------------
 ! Name  Definition              Value                                          !
 --------------------------------------------------------------------------------
 ! R1    R(1,2)                  1.9136                                         !
 ! R2    R(1,3)                  1.9136                                         !
 ! R3    R(1,4)                  1.9136                                         !
 ! R4    R(1,5)                  1.9136                                         !
 ! R5    R(1,6)                  1.9136                                         !
 ! R6    R(1,7)                  1.9136                                         !
 ! R7    R(2,8)                  1.135                                          !
 ! R8    R(3,9)                  1.135                                          !
 ! R9    R(4,10)                 1.135                                          !
 ! R10   R(5,11)                 1.135                                          !
 ! R11   R(6,12)                 1.135                                          !
 ! R12   R(7,13)                 1.135                                          !
 ! A1    A(2,1,4)               90.0                                            !
 ! A2    A(2,1,5)               90.0                                            !
 ! A3    A(2,1,6)               90.0                                            !
 ! A4    A(2,1,7)               90.0                                            !
 ! A5    A(3,1,4)               90.0                                            !
 ! A6    A(3,1,5)               90.0                                            !
 ! A7    A(3,1,6)               90.0                                            !
 ! A8    A(3,1,7)               90.0                                            !
 ! A9    A(4,1,6)               90.0                                            !
 ! A10   A(4,1,7)               90.0                                            !
 ! A11   A(5,1,6)               90.0                                            !
 ! A12   A(5,1,7)               90.0                                            !
 ! A13   L(2,1,3,4,-1)         180.0                                            !
 ! A14   L(4,1,5,2,-1)         180.0                                            !
 ! A15   L(6,1,7,2,-1)         180.0                                            !
 ! A16   L(1,2,8,10,-1)        180.0                                            !
 ! A17   L(1,3,9,10,-1)        180.0                                            !
 ! A18   L(1,4,10,8,-1)        180.0                                            !
 ! A19   L(1,5,11,8,-1)        180.0                                            !
 ! A20   L(1,6,12,8,-1)        180.0                                            !
 ! A21   L(1,7,13,8,-1)        180.0                                            !
 ! A22   L(2,1,3,4,-2)         180.0                                            !
 ! A23   L(4,1,5,2,-2)         180.0                                            !
 ! A24   L(6,1,7,2,-2)         180.0                                            !
 ! A25   L(1,2,8,10,-2)        180.0                                            !
 ! A26   L(1,3,9,10,-2)        180.0                                            !
 ! A27   L(1,4,10,8,-2)        180.0                                            !
 ! A28   L(1,5,11,8,-2)        180.0                                            !
 ! A29   L(1,6,12,8,-2)        180.0                                            !
 ! A30   L(1,7,13,8,-2)        180.0                                            !
 ! D1    D(2,1,6,4)             90.0                                            !
 ! D2    D(2,1,7,4)            -90.0                                            !
 ! D3    D(2,1,6,5)            -90.0                                            !
 ! D4    D(2,1,7,5)             90.0                                            !
 ! D5    D(3,1,6,4)            -90.0                                            !
 ! D6    D(3,1,7,4)             90.0                                            !
 ! D7    D(3,1,6,5)             90.0                                            !
 ! D8    D(3,1,7,5)            -90.0                                            !
 --------------------------------------------------------------------------------
                          Input orientation:                          
 ---------------------------------------------------------------------
 Center     Atomic      Atomic             Coordinates (Angstroms)
 Number     Number       Type             X           Y           Z
 ---------------------------------------------------------------------
      1         24           0       -0.000000   -0.000000   -0.000000
      2          6           0        1.913598   -0.000000   -0.000000
      3          6           0       -1.913598   -0.000000   -0.000000
      4          6           0       -0.000000    1.913598    0.000000
      5          6           0        0.000000   -1.913598    0.000000
      6          6           0       -0.000000   -0.000000    1.913598
      7          6           0       -0.000000   -0.000000   -1.913598
      8          8           0        3.048574    0.000000   -0.000000
      9          8           0       -3.048574    0.000000   -0.000000
     10          8           0        0.000000    3.048574    0.000000
     11          8           0        0.000000   -3.048574    0.000000
     12          8           0        0.000000    0.000000    3.048574
     13          8           0       -0.000000    0.000000   -3.048574
 ---------------------------------------------------------------------
                    Distance matrix (angstroms):
                    1          2          3          4          5
     1  Cr   0.000000
     2  C    1.913598   0.000000
     3  C    1.913598   3.827196   0.000000
     4  C    1.913598   2.706236   2.706236   0.000000
     5  C    1.913598   2.706236   2.706236   3.827196   0.000000
     6  C    1.913598   2.706236   2.706236   2.706236   2.706236
     7  C    1.913598   2.706236   2.706236   2.706236   2.706236
     8  O    3.048574   1.134976   4.962172   3.599397   3.599397
     9  O    3.048574   4.962172   1.134976   3.599397   3.599397
    10  O    3.048574   3.599397   3.599397   1.134976   4.962172
    11  O    3.048574   3.599397   3.599397   4.962172   1.134976
    12  O    3.048574   3.599397   3.599397   3.599397   3.599397
    13  O    3.048574   3.599397   3.599397   3.599397   3.599397
                    6          7          8          9         10
     6  C    0.000000
     7  C    3.827196   0.000000
     8  O    3.599397   3.599397   0.000000
     9  O    3.599397   3.599397   6.097147   0.000000
    10  O    3.599397   3.599397   4.311334   4.311334   0.000000
    11  O    3.599397   3.599397   4.311334   4.311334   6.097147
    12  O    1.134976   4.962172   4.311334   4.311334   4.311334
    13  O    4.962172   1.134976   4.311334   4.311334   4.311334
                   11         12         13
    11  O    0.000000
    12  O    4.311334   0.000000
    13  O    4.311334   6.097147   0.000000
 Symmetry turned off by external request.
 Stoichiometry    C6CrO6(1-,2)
 Framework group  OH[O(Cr),3C4(OC.CO)]
 Deg. of freedom     2
 Full point group                 OH      NOp  48
 Rotational constants (GHZ):           0.6560097           0.6560097           0.6560097
 Basis read from chk: "CrCO6couple_N+1.chk" (5D, 7F)
 Pseudo-potential data read from chk file.
   286 basis functions,   484 primitive gaussians,   300 cartesian basis functions
    50 alpha electrons       49 beta electrons
       nuclear repulsion energy       800.7125484233 Hartrees.
 NAtoms=   13 NActive=   13 NUniq=   13 SFac= 1.00D+00 NAtFMM=   60 NAOKFM=F Big=F
 Integral buffers will be    131072 words long.
 Raffenetti 2 integral format.
 Two-electron integral symmetry is turned off.
 One-electron integrals computed using PRISM.
   1 Symmetry operations used in ECPInt.
 ECPInt:  NShTT=    3240 NPrTT=   15282 LenC2=    3061 LenP2D=    9666.
 LDataN:  DoStor=T MaxTD1= 4 Len=   56
 NBasis=   286 RedAO= T EigKep=  3.50D-06  NBF=   286
 NBsUse=   286 1.00D-06 EigRej= -1.00D+00 NBFU=   286
 Initial guess from the checkpoint file:  "CrCO6couple_N+1.chk"
 B after Tr=     0.000000    0.000000    0.000000
         Rot=    1.000000    0.000000    0.000000    0.000000 Ang=   0.00 deg.
 Initial guess <Sx>= 0.0000 <Sy>= 0.0000 <Sz>= 0.5000 <S**2>= 0.7500 S= 0.5000
 Requested convergence on RMS density matrix=1.00D-08 within 128 cycles.
 Requested convergence on MAX density matrix=1.00D-06.
 Requested convergence on             energy=1.00D-06.
 No special actions if energy rises.
 Rare condition: small coef for last iteration:  0.000D+00
 Restarting incremental Fock formation.
 Restarting incremental Fock formation.
 SCF Done:  E(UHF) =  -762.107611782     A.U. after   58 cycles
            NFock= 58  Conv=0.18D-08     -V/T= 2.0594
 <Sx>= 0.0000 <Sy>= 0.0000 <Sz>= 0.5000 <S**2>= 1.4954 S= 0.8211
 <L.S>=  0.00000000000    
 Annihilation of the first spin contaminant:
 S**2 before annihilation     1.4954,   after     1.3401
 ExpMin= 1.90D-02 ExpMax= 8.59D+03 ExpMxC= 1.30D+03 IAcc=3 IRadAn=         5 AccDes= 0.00D+00
 HarFok:  IExCor=  205 AccDes= 0.00D+00 IRadAn=         5 IDoV=-2 UseB2=F ITyADJ=14
 ICtDFT= 12500011 ScaDFX=  1.000000  1.000000  1.000000  1.000000
 Range of M.O.s used for correlation:    17   286
 NBasis=   286 NAE=    50 NBE=    49 NFC=    16 NFV=     0
 NROrb=    270 NOA=    34 NOB=    33 NVA=   236 NVB=   237

 **** Warning!!: The largest alpha MO coefficient is  0.19177232D+03


 **** Warning!!: The smallest alpha delta epsilon is  0.71846827D-01


 **** Warning!!: The largest beta MO coefficient is  0.19236921D+03

 Semi-Direct transformation.
 ModeAB=           4 MOrb=            34 LenV=    4292901676
 LASXX=    307105731 LTotXX=   307105731 LenRXX=   622431846
 LTotAB=   315326115 MaxLAS=   373304700 LenRXY=           0
 NonZer=   929537577 LenScr=  1399775232 LnRSAI=   373304700
 LnScr1=   562153472 LExtra=           0 Total=   2957665250
 MaxDsk=          -1 SrtSym=           T ITran=            4
 JobTyp=1 Pass  1:  I=   1 to  34.
 (rs|ai) integrals will be sorted in core.
 ModeAB=           4 MOrb=            33 LenV=    4292901676
 LASXX=    298925319 LTotXX=   298925319 LenRXX=   533336331
 LTotAB=   234411012 MaxLAS=   362325150 LenRXY=           0
 NonZer=   832261650 LenScr=  1253288960 LnRSAI=   362325150
 LnScr1=   545619968 LExtra=           0 Total=   2694570409
 MaxDsk=          -1 SrtSym=           T ITran=            4
 JobTyp=2 Pass  1:  I=   1 to  33.
 (rs|ai) integrals will be sorted in core.
 Spin components of T(2) and E(2):
     alpha-alpha T2 =       0.1416059631D+00 E2=     -0.3402374201D+00
     alpha-beta  T2 =       0.5386272655D+00 E2=     -0.1549907005D+01
     beta-beta   T2 =       0.1096772591D+00 E2=     -0.3064989879D+00
 ANorm=    0.1337875363D+01
 E2 =    -0.2196643413D+01 EUMP2 =    -0.76430425519480D+03
 (S**2,0)=  0.14954D+01           (S**2,1)=  0.13503D+01
 E(PUHF)=      -0.76214763649D+03        E(PMP2)=      -0.76434159727D+03
 Keep R2 and R3 ints in memory in canonical form, NReq=1698091367.
 CIDS: In Core Option IDoMem=           1.
 Iterations=  50 Convergence= 0.100D-07
 Produce multiple copies of IABC intergrals
 Iteration Nr.   1
 **********************
 DD1Dir will call FoFMem   1 times, MxPair=      3334
 NAB=  1122 NAA=   561 NBB=   528.
 E(PMP3)=      -0.76416956029D+03
 MP4(R+Q)=  0.34422234D-01
 E3=        0.16463272D+00        EUMP3=      -0.76413962248D+03
 E4(DQ)=   -0.92864991D-01        UMP4(DQ)=   -0.76423248747D+03
 E4(SDQ)=  -0.18344797D+00        UMP4(SDQ)=  -0.76432307044D+03
 DE(Corr)=  -1.9956680     E(Corr)=     -764.10327982    
 NORM(A)=   0.13063634D+01
 Iteration Nr.   2
 **********************
 DD1Dir will call FoFMem   1 times, MxPair=      3334
 NAB=  1122 NAA=   561 NBB=   528.
 DE(Corr)=  -2.1582525     E(CORR)=     -764.26586423     Delta=-1.63D-01
 NORM(A)=   0.13611780D+01
 Iteration Nr.   3
 **********************
 DD1Dir will call FoFMem   1 times, MxPair=      3334
 NAB=  1122 NAA=   561 NBB=   528.
 DE(Corr)=  -2.1338195     E(CORR)=     -764.24143125     Delta= 2.44D-02
 NORM(A)=   0.14030786D+01
 Iteration Nr.   4
 **********************
 DD1Dir will call FoFMem   1 times, MxPair=      3334
 NAB=  1122 NAA=   561 NBB=   528.
 DE(Corr)=  -2.1599851     E(CORR)=     -764.26759690     Delta=-2.62D-02
 NORM(A)=   0.14418184D+01
 Iteration Nr.   5
 **********************
 DD1Dir will call FoFMem   1 times, MxPair=      3334
 NAB=  1122 NAA=   561 NBB=   528.
 DE(Corr)=  -2.1699563     E(CORR)=     -764.27756810     Delta=-9.97D-03
 NORM(A)=   0.14647265D+01
 Iteration Nr.   6
 **********************
 DD1Dir will call FoFMem   1 times, MxPair=      3334
 NAB=  1122 NAA=   561 NBB=   528.
 DE(Corr)=  -2.1727528     E(CORR)=     -764.28036458     Delta=-2.80D-03
 NORM(A)=   0.14711910D+01
 Iteration Nr.   7
 **********************
 DD1Dir will call FoFMem   1 times, MxPair=      3334
 NAB=  1122 NAA=   561 NBB=   528.
 DE(Corr)=  -2.1737987     E(CORR)=     -764.28141048     Delta=-1.05D-03
 NORM(A)=   0.14733178D+01
 Iteration Nr.   8
 **********************
 DD1Dir will call FoFMem   1 times, MxPair=      3334
 NAB=  1122 NAA=   561 NBB=   528.
 DE(Corr)=  -2.1742896     E(CORR)=     -764.28190141     Delta=-4.91D-04
 NORM(A)=   0.14742807D+01
 Iteration Nr.   9
 **********************
 DD1Dir will call FoFMem   1 times, MxPair=      3334
 NAB=  1122 NAA=   561 NBB=   528.
 DE(Corr)=  -2.1737698     E(CORR)=     -764.28138161     Delta= 5.20D-04
 NORM(A)=   0.14764858D+01
 Iteration Nr.  10
 **********************
 DD1Dir will call FoFMem   1 times, MxPair=      3334
 NAB=  1122 NAA=   561 NBB=   528.
 DE(Corr)=  -2.1742341     E(CORR)=     -764.28184593     Delta=-4.64D-04
 NORM(A)=   0.14800958D+01
 Iteration Nr.  11
 **********************
 DD1Dir will call FoFMem   1 times, MxPair=      3334
 NAB=  1122 NAA=   561 NBB=   528.
 DE(Corr)=  -2.1734580     E(CORR)=     -764.28106982     Delta= 7.76D-04
 NORM(A)=   0.14916630D+01
 Iteration Nr.  12
 **********************
 DD1Dir will call FoFMem   1 times, MxPair=      3334
 NAB=  1122 NAA=   561 NBB=   528.
 DE(Corr)=  -2.1737236     E(CORR)=     -764.28133533     Delta=-2.66D-04
 NORM(A)=   0.15019682D+01
 Iteration Nr.  13
 **********************
 DD1Dir will call FoFMem   1 times, MxPair=      3334
 NAB=  1122 NAA=   561 NBB=   528.
 DE(Corr)=  -2.1736343     E(CORR)=     -764.28124606     Delta= 8.93D-05
 NORM(A)=   0.15200632D+01
 Iteration Nr.  14
 **********************
 DD1Dir will call FoFMem   1 times, MxPair=      3334
 NAB=  1122 NAA=   561 NBB=   528.
 DE(Corr)=  -2.1735960     E(CORR)=     -764.28120779     Delta= 3.83D-05
 NORM(A)=   0.15175480D+01
 Iteration Nr.  15
 **********************
 DD1Dir will call FoFMem   1 times, MxPair=      3334
 NAB=  1122 NAA=   561 NBB=   528.
 DE(Corr)=  -2.1738120     E(CORR)=     -764.28142382     Delta=-2.16D-04
 NORM(A)=   0.15242342D+01
 Iteration Nr.  16
 **********************
 DD1Dir will call FoFMem   1 times, MxPair=      3334
 NAB=  1122 NAA=   561 NBB=   528.
 DE(Corr)=  -2.1740137     E(CORR)=     -764.28162549     Delta=-2.02D-04
 NORM(A)=   0.15241795D+01
 Iteration Nr.  17
 **********************
 DD1Dir will call FoFMem   1 times, MxPair=      3334
 NAB=  1122 NAA=   561 NBB=   528.
 DE(Corr)=  -2.1740062     E(CORR)=     -764.28161797     Delta= 7.51D-06
 NORM(A)=   0.15252479D+01
 Iteration Nr.  18
 **********************
 DD1Dir will call FoFMem   1 times, MxPair=      3334
 NAB=  1122 NAA=   561 NBB=   528.
 DE(Corr)=  -2.1741373     E(CORR)=     -764.28174908     Delta=-1.31D-04
 NORM(A)=   0.15254758D+01
 Iteration Nr.  19
 **********************
 DD1Dir will call FoFMem   1 times, MxPair=      3334
 NAB=  1122 NAA=   561 NBB=   528.
 DE(Corr)=  -2.1741380     E(CORR)=     -764.28174982     Delta=-7.42D-07
 NORM(A)=   0.15257284D+01
 Iteration Nr.  20
 **********************
 DD1Dir will call FoFMem   1 times, MxPair=      3334
 NAB=  1122 NAA=   561 NBB=   528.
 DE(Corr)=  -2.1741667     E(CORR)=     -764.28177849     Delta=-2.87D-05
 NORM(A)=   0.15258254D+01
 Iteration Nr.  21
 **********************
 DD1Dir will call FoFMem   1 times, MxPair=      3334
 NAB=  1122 NAA=   561 NBB=   528.
 DE(Corr)=  -2.1741787     E(CORR)=     -764.28179052     Delta=-1.20D-05
 NORM(A)=   0.15258739D+01
 Iteration Nr.  22
 **********************
 DD1Dir will call FoFMem   1 times, MxPair=      3334
 NAB=  1122 NAA=   561 NBB=   528.
 DE(Corr)=  -2.1741826     E(CORR)=     -764.28179436     Delta=-3.84D-06
 NORM(A)=   0.15258571D+01
 Iteration Nr.  23
 **********************
 DD1Dir will call FoFMem   1 times, MxPair=      3334
 NAB=  1122 NAA=   561 NBB=   528.
 DE(Corr)=  -2.1741809     E(CORR)=     -764.28179272     Delta= 1.64D-06
 NORM(A)=   0.15258556D+01
 Iteration Nr.  24
 **********************
 DD1Dir will call FoFMem   1 times, MxPair=      3334
 NAB=  1122 NAA=   561 NBB=   528.
 DE(Corr)=  -2.1741821     E(CORR)=     -764.28179390     Delta=-1.18D-06
 NORM(A)=   0.15258254D+01
 Iteration Nr.  25
 **********************
 DD1Dir will call FoFMem   1 times, MxPair=      3334
 NAB=  1122 NAA=   561 NBB=   528.
 DE(Corr)=  -2.1741795     E(CORR)=     -764.28179126     Delta= 2.64D-06
 NORM(A)=   0.15258156D+01
 Iteration Nr.  26
 **********************
 DD1Dir will call FoFMem   1 times, MxPair=      3334
 NAB=  1122 NAA=   561 NBB=   528.
 DE(Corr)=  -2.1741802     E(CORR)=     -764.28179201     Delta=-7.51D-07
 NORM(A)=   0.15257712D+01
 Iteration Nr.  27
 **********************
 DD1Dir will call FoFMem   1 times, MxPair=      3334
 NAB=  1122 NAA=   561 NBB=   528.
 DE(Corr)=  -2.1741786     E(CORR)=     -764.28179039     Delta= 1.62D-06
 NORM(A)=   0.15257171D+01
 Iteration Nr.  28
 **********************
 DD1Dir will call FoFMem   1 times, MxPair=      3334
 NAB=  1122 NAA=   561 NBB=   528.
 DE(Corr)=  -2.1741770     E(CORR)=     -764.28178883     Delta= 1.56D-06
 NORM(A)=   0.15256355D+01
 Iteration Nr.  29
 **********************
 DD1Dir will call FoFMem   1 times, MxPair=      3334
 NAB=  1122 NAA=   561 NBB=   528.
 DE(Corr)=  -2.1741763     E(CORR)=     -764.28178813     Delta= 6.98D-07
 NORM(A)=   0.15256089D+01
 Iteration Nr.  30
 **********************
 DD1Dir will call FoFMem   1 times, MxPair=      3334
 NAB=  1122 NAA=   561 NBB=   528.
 DE(Corr)=  -2.1741769     E(CORR)=     -764.28178871     Delta=-5.76D-07
 NORM(A)=   0.15255740D+01
 Iteration Nr.  31
 **********************
 DD1Dir will call FoFMem   1 times, MxPair=      3334
 NAB=  1122 NAA=   561 NBB=   528.
 DE(Corr)=  -2.1741771     E(CORR)=     -764.28178886     Delta=-1.50D-07
 NORM(A)=   0.15255777D+01
 Iteration Nr.  32
 **********************
 DD1Dir will call FoFMem   1 times, MxPair=      3334
 NAB=  1122 NAA=   561 NBB=   528.
 DE(Corr)=  -2.1741788     E(CORR)=     -764.28179058     Delta=-1.73D-06
 NORM(A)=   0.15255605D+01
 Iteration Nr.  33
 **********************
 DD1Dir will call FoFMem   1 times, MxPair=      3334
 NAB=  1122 NAA=   561 NBB=   528.
 DE(Corr)=  -2.1741788     E(CORR)=     -764.28179054     Delta= 4.02D-08
 NORM(A)=   0.15255647D+01
 Iteration Nr.  34
 **********************
 DD1Dir will call FoFMem   1 times, MxPair=      3334
 NAB=  1122 NAA=   561 NBB=   528.
 DE(Corr)=  -2.1741789     E(CORR)=     -764.28179068     Delta=-1.41D-07
 NORM(A)=   0.15255646D+01
 Iteration Nr.  35
 **********************
 DD1Dir will call FoFMem   1 times, MxPair=      3334
 NAB=  1122 NAA=   561 NBB=   528.
 DE(Corr)=  -2.1741792     E(CORR)=     -764.28179103     Delta=-3.43D-07
 NORM(A)=   0.15255660D+01
 Iteration Nr.  36
 **********************
 DD1Dir will call FoFMem   1 times, MxPair=      3334
 NAB=  1122 NAA=   561 NBB=   528.
 DE(Corr)=  -2.1741793     E(CORR)=     -764.28179110     Delta=-7.06D-08
 NORM(A)=   0.15255686D+01
 Iteration Nr.  37
 **********************
 DD1Dir will call FoFMem   1 times, MxPair=      3334
 NAB=  1122 NAA=   561 NBB=   528.
 DE(Corr)=  -2.1741794     E(CORR)=     -764.28179122     Delta=-1.19D-07
 NORM(A)=   0.15255680D+01
 Iteration Nr.  38
 **********************
 DD1Dir will call FoFMem   1 times, MxPair=      3334
 NAB=  1122 NAA=   561 NBB=   528.
 DE(Corr)=  -2.1741795     E(CORR)=     -764.28179124     Delta=-2.19D-08
 NORM(A)=   0.15255680D+01
 Iteration Nr.  39
 **********************
 DD1Dir will call FoFMem   1 times, MxPair=      3334
 NAB=  1122 NAA=   561 NBB=   528.
 DE(Corr)=  -2.1741794     E(CORR)=     -764.28179117     Delta= 6.79D-08
 NORM(A)=   0.15255681D+01
 Iteration Nr.  40
 **********************
 DD1Dir will call FoFMem   1 times, MxPair=      3334
 NAB=  1122 NAA=   561 NBB=   528.
 DE(Corr)=  -2.1741794     E(CORR)=     -764.28179119     Delta=-1.73D-08
 NORM(A)=   0.15255682D+01
 Iteration Nr.  41
 **********************
 DD1Dir will call FoFMem   1 times, MxPair=      3334
 NAB=  1122 NAA=   561 NBB=   528.
 DE(Corr)=  -2.1741794     E(CORR)=     -764.28179119     Delta=-2.78D-09
 NORM(A)=   0.15255683D+01
 Wavefunction amplitudes converged. E(Corr)=     -764.28179119    
 Dominant configurations:
 ***********************
 Spin Case        I    J    A    B          Value
    AA           47        83            0.110734D+00
    AA           48        84            0.110734D+00
    AA           49        85            0.121447D+00
    AA           50        54           -0.408532D+00
    BB           47        55            0.221049D+00
    BB           47        65           -0.131900D+00
    BB           48        56            0.218541D+00
    BB           49        57            0.218541D+00
 Largest amplitude= 4.09D-01

 Z-amplitude iterations

 Iteration Nr.   1
 **********************
 DD1Dir will call FoFMem   1 times, MxPair=      3334
 NAB=  1122 NAA=   561 NBB=   528.
 DE(Z)=  -2.0624531     E(Z)=     -764.17006488     Delta= 1.12D-01
 NORM(A)=   0.15250349D+01
 Iteration Nr.   2
 **********************
 DD1Dir will call FoFMem   1 times, MxPair=      3334
 NAB=  1122 NAA=   561 NBB=   528.
 DE(Z)=  -2.0623781     E(Z)=     -764.16998989     Delta= 7.50D-05
 NORM(A)=   0.15260951D+01
 Iteration Nr.   3
 **********************
 DD1Dir will call FoFMem   1 times, MxPair=      3334
 NAB=  1122 NAA=   561 NBB=   528.
 DE(Z)=  -2.0624860     E(Z)=     -764.17009774     Delta=-1.08D-04
 NORM(A)=   0.15247452D+01
 Iteration Nr.   4
 **********************
 DD1Dir will call FoFMem   1 times, MxPair=      3334
 NAB=  1122 NAA=   561 NBB=   528.
 DE(Z)=  -2.0623848     E(Z)=     -764.16999661     Delta= 1.01D-04
 NORM(A)=   0.15284129D+01
 Iteration Nr.   5
 **********************
 DD1Dir will call FoFMem   1 times, MxPair=      3334
 NAB=  1122 NAA=   561 NBB=   528.
 DE(Z)=  -2.0626829     E(Z)=     -764.17029464     Delta=-2.98D-04
 NORM(A)=   0.14463826D+01
 Iteration Nr.   6
 **********************
 DD1Dir will call FoFMem   1 times, MxPair=      3334
 NAB=  1122 NAA=   561 NBB=   528.
 DE(Z)=  -2.0560397     E(Z)=     -764.16365153     Delta= 6.64D-03
 NORM(A)=   0.14457060D+01
 Iteration Nr.   7
 **********************
 DD1Dir will call FoFMem   1 times, MxPair=      3334
 NAB=  1122 NAA=   561 NBB=   528.
 DE(Z)=  -2.0564093     E(Z)=     -764.16402104     Delta=-3.70D-04
 NORM(A)=   0.14411158D+01
 Iteration Nr.   8
 **********************
 DD1Dir will call FoFMem   1 times, MxPair=      3334
 NAB=  1122 NAA=   561 NBB=   528.
 DE(Z)=  -2.0573060     E(Z)=     -764.16491782     Delta=-8.97D-04
 NORM(A)=   0.14368749D+01
 Iteration Nr.   9
 **********************
 DD1Dir will call FoFMem   1 times, MxPair=      3334
 NAB=  1122 NAA=   561 NBB=   528.
 DE(Z)=  -2.0589835     E(Z)=     -764.16659533     Delta=-1.68D-03
 NORM(A)=   0.14304218D+01
 Iteration Nr.  10
 **********************
 DD1Dir will call FoFMem   1 times, MxPair=      3334
 NAB=  1122 NAA=   561 NBB=   528.
 DE(Z)=  -2.0603377     E(Z)=     -764.16794949     Delta=-1.35D-03
 NORM(A)=   0.14236010D+01
 Iteration Nr.  11
 **********************
 DD1Dir will call FoFMem   1 times, MxPair=      3334
 NAB=  1122 NAA=   561 NBB=   528.
 DE(Z)=  -2.0624182     E(Z)=     -764.17002995     Delta=-2.08D-03
 NORM(A)=   0.14214551D+01
 Iteration Nr.  12
 **********************
 DD1Dir will call FoFMem   1 times, MxPair=      3334
 NAB=  1122 NAA=   561 NBB=   528.
 DE(Z)=  -2.0628862     E(Z)=     -764.17049803     Delta=-4.68D-04
 NORM(A)=   0.14203104D+01
 Iteration Nr.  13
 **********************
 DD1Dir will call FoFMem   1 times, MxPair=      3334
 NAB=  1122 NAA=   561 NBB=   528.
 DE(Z)=  -2.0629838     E(Z)=     -764.17059556     Delta=-9.75D-05
 NORM(A)=   0.14195342D+01
 Iteration Nr.  14
 **********************
 DD1Dir will call FoFMem   1 times, MxPair=      3334
 NAB=  1122 NAA=   561 NBB=   528.
 DE(Z)=  -2.0631315     E(Z)=     -764.17074328     Delta=-1.48D-04
 NORM(A)=   0.14195792D+01
 Iteration Nr.  15
 **********************
 DD1Dir will call FoFMem   1 times, MxPair=      3334
 NAB=  1122 NAA=   561 NBB=   528.
 DE(Z)=  -2.0630161     E(Z)=     -764.17062789     Delta= 1.15D-04
 NORM(A)=   0.14194534D+01
 Iteration Nr.  16
 **********************
 DD1Dir will call FoFMem   1 times, MxPair=      3334
 NAB=  1122 NAA=   561 NBB=   528.
 DE(Z)=  -2.0630595     E(Z)=     -764.17067124     Delta=-4.33D-05
 NORM(A)=   0.14194765D+01
 Iteration Nr.  17
 **********************
 DD1Dir will call FoFMem   1 times, MxPair=      3334
 NAB=  1122 NAA=   561 NBB=   528.
 DE(Z)=  -2.0630576     E(Z)=     -764.17066935     Delta= 1.89D-06
 NORM(A)=   0.14194423D+01
 Iteration Nr.  18
 **********************
 DD1Dir will call FoFMem   1 times, MxPair=      3334
 NAB=  1122 NAA=   561 NBB=   528.
 DE(Z)=  -2.0630769     E(Z)=     -764.17068869     Delta=-1.93D-05
 NORM(A)=   0.14194378D+01
 Iteration Nr.  19
 **********************
 DD1Dir will call FoFMem   1 times, MxPair=      3334
 NAB=  1122 NAA=   561 NBB=   528.
 DE(Z)=  -2.0630875     E(Z)=     -764.17069931     Delta=-1.06D-05
 NORM(A)=   0.14194317D+01
 Iteration Nr.  20
 **********************
 DD1Dir will call FoFMem   1 times, MxPair=      3334
 NAB=  1122 NAA=   561 NBB=   528.
 DE(Z)=  -2.0630948     E(Z)=     -764.17070656     Delta=-7.25D-06
 NORM(A)=   0.14194321D+01
 Iteration Nr.  21
 **********************
 DD1Dir will call FoFMem   1 times, MxPair=      3334
 NAB=  1122 NAA=   561 NBB=   528.
 DE(Z)=  -2.0630953     E(Z)=     -764.17070708     Delta=-5.16D-07
 NORM(A)=   0.14194315D+01
 Iteration Nr.  22
 **********************
 DD1Dir will call FoFMem   1 times, MxPair=      3334
 NAB=  1122 NAA=   561 NBB=   528.
 DE(Z)=  -2.0630968     E(Z)=     -764.17070856     Delta=-1.48D-06
 NORM(A)=   0.14194319D+01
 Iteration Nr.  23
 **********************
 DD1Dir will call FoFMem   1 times, MxPair=      3334
 NAB=  1122 NAA=   561 NBB=   528.
 DE(Z)=  -2.0630966     E(Z)=     -764.17070837     Delta= 1.96D-07
 NORM(A)=   0.14194326D+01
 Iteration Nr.  24
 **********************
 DD1Dir will call FoFMem   1 times, MxPair=      3334
 NAB=  1122 NAA=   561 NBB=   528.
 DE(Z)=  -2.0630963     E(Z)=     -764.17070811     Delta= 2.61D-07
 NORM(A)=   0.14194323D+01
 Iteration Nr.  25
 **********************
 DD1Dir will call FoFMem   1 times, MxPair=      3334
 NAB=  1122 NAA=   561 NBB=   528.
 DE(Z)=  -2.0630963     E(Z)=     -764.17070807     Delta= 3.98D-08
 NORM(A)=   0.14194322D+01
 Iteration Nr.  26
 **********************
 DD1Dir will call FoFMem   1 times, MxPair=      3334
 NAB=  1122 NAA=   561 NBB=   528.
 DE(Z)=  -2.0630964     E(Z)=     -764.17070819     Delta=-1.22D-07
 NORM(A)=   0.14194320D+01
 Iteration Nr.  27
 **********************
 DD1Dir will call FoFMem   1 times, MxPair=      3334
 NAB=  1122 NAA=   561 NBB=   528.
 DE(Z)=  -2.0630964     E(Z)=     -764.17070821     Delta=-1.83D-08
 NORM(A)=   0.14194320D+01
 Iteration Nr.  28
 **********************
 DD1Dir will call FoFMem   1 times, MxPair=      3334
 NAB=  1122 NAA=   561 NBB=   528.
 DE(Z)=  -2.0630964     E(Z)=     -764.17070820     Delta= 1.24D-08
 NORM(A)=   0.14194320D+01
 Iteration Nr.  29
 **********************
 DD1Dir will call FoFMem   1 times, MxPair=      3334
 NAB=  1122 NAA=   561 NBB=   528.
 DE(Z)=  -2.0630964     E(Z)=     -764.17070819     Delta= 6.04D-09
 NORM(A)=   0.14194320D+01
 Z-amplitudes converged.

 S**2, projected HF & approx projected MPn energies after annihilation of
 unwanted spin states (see manual for definitions):

 spins       (S**2,0) (S**2,1)    PUHF        PMP2        PMP3        PMP4
 annihilated
 s+1         0.41286  0.57266 -762.147636 -764.341597 -764.169560
 s+1,s+2     0.78401  0.75908 -762.135567 -764.330020 -764.158956
 s+1 to s+3  0.74936  0.75014 -762.136605 -764.330852 -764.159268
 s+1 to s+4  0.75001  0.75000 -762.136582 -764.330825 -764.159226
 s+1 to s+5  0.75000  0.75000 -762.136582
 s+1 to s+6  0.75000  0.75000 -762.136582

 Discarding MO integrals.
          Differentiating once with respect to electric field.
                with respect to dipole field.
          Electric field/nuclear overlap derivatives assumed to be zero.
          There are     1 degrees of freedom in the 1st order CPHF.  IDoFFX=0 NUNeed=     1.
 LinEq1:  Iter=  0 NonCon=     1 RMS=2.58D-03 Max=1.29D-01 NDo=     1
 AX will form     1 AO Fock derivatives at one time.
 LinEq1:  Iter=  1 NonCon=     1 RMS=2.08D-03 Max=1.14D-01 NDo=     1
 LinEq1:  Iter=  2 NonCon=     1 RMS=1.28D-03 Max=6.91D-02 NDo=     1
 LinEq1:  Iter=  3 NonCon=     1 RMS=6.31D-04 Max=1.96D-02 NDo=     1
 LinEq1:  Iter=  4 NonCon=     1 RMS=3.62D-04 Max=1.19D-02 NDo=     1
 LinEq1:  Iter=  5 NonCon=     1 RMS=1.79D-04 Max=1.39D-02 NDo=     1
 LinEq1:  Iter=  6 NonCon=     1 RMS=4.95D-05 Max=4.34D-03 NDo=     1
 LinEq1:  Iter=  7 NonCon=     1 RMS=1.29D-05 Max=6.09D-04 NDo=     1
 LinEq1:  Iter=  8 NonCon=     1 RMS=5.54D-06 Max=1.10D-04 NDo=     1
 LinEq1:  Iter=  9 NonCon=     1 RMS=2.31D-06 Max=7.39D-05 NDo=     1
 LinEq1:  Iter= 10 NonCon=     1 RMS=6.55D-07 Max=2.91D-05 NDo=     1
 LinEq1:  Iter= 11 NonCon=     1 RMS=1.96D-07 Max=5.57D-06 NDo=     1
 LinEq1:  Iter= 12 NonCon=     1 RMS=4.77D-08 Max=1.42D-06 NDo=     1
 LinEq1:  Iter= 13 NonCon=     1 RMS=1.43D-08 Max=5.10D-07 NDo=     1
 LinEq1:  Iter= 14 NonCon=     1 RMS=4.51D-09 Max=2.51D-07 NDo=     1
 LinEq1:  Iter= 15 NonCon=     1 RMS=1.32D-09 Max=5.45D-08 NDo=     1
 LinEq1:  Iter= 16 NonCon=     1 RMS=3.33D-10 Max=1.05D-08 NDo=     1
 LinEq1:  Iter= 17 NonCon=     1 RMS=5.73D-11 Max=1.82D-09 NDo=     1
 LinEq1:  Iter= 18 NonCon=     0 RMS=1.30D-11 Max=3.75D-10 NDo=     1
 Linear equations converged to 1.000D-10 1.000D-09 after    18 iterations.
 End of Minotr F.D. properties file   721 does not exist.
 End of Minotr F.D. properties file   722 does not exist.
 End of Minotr F.D. properties file   788 does not exist.

 **********************************************************************

            Population analysis using the CC Density.

 **********************************************************************

 Alpha  occ. eigenvalues --  -20.57894 -20.57894 -20.57894 -20.57894 -20.57446
 Alpha  occ. eigenvalues --  -20.57446 -11.29524 -11.29524 -11.29524 -11.29522
 Alpha  occ. eigenvalues --  -11.29014 -11.29014  -3.33668  -2.09688  -2.09675
 Alpha  occ. eigenvalues --   -2.09675  -1.44229  -1.44150  -1.44150  -1.44110
 Alpha  occ. eigenvalues --   -1.43581  -1.43576  -0.77805  -0.73009  -0.73009
 Alpha  occ. eigenvalues --   -0.72410  -0.72400  -0.71991  -0.64458  -0.58901
 Alpha  occ. eigenvalues --   -0.58844  -0.58781  -0.58781  -0.58589  -0.58589
 Alpha  occ. eigenvalues --   -0.56866  -0.56468  -0.56468  -0.56140  -0.55793
 Alpha  occ. eigenvalues --   -0.55793  -0.52927  -0.52750  -0.51634  -0.51634
 Alpha  occ. eigenvalues --   -0.51530  -0.20406  -0.20406  -0.20386   0.03656
 Alpha virt. eigenvalues --    0.10841   0.10841   0.11315   0.16196   0.16571
 Alpha virt. eigenvalues --    0.16571   0.17916   0.18173   0.20204   0.20497
 Alpha virt. eigenvalues --    0.20497   0.20591   0.20591   0.21021   0.21541
 Alpha virt. eigenvalues --    0.21541   0.21705   0.23140   0.23140   0.23251
 Alpha virt. eigenvalues --    0.24378   0.24378   0.24477   0.24760   0.25913
 Alpha virt. eigenvalues --    0.26290   0.26290   0.30020   0.30181   0.30326
 Alpha virt. eigenvalues --    0.30588   0.30588   0.31143   0.31143   0.31152
 Alpha virt. eigenvalues --    0.34340   0.34340   0.34582   0.38119   0.39862
 Alpha virt. eigenvalues --    0.39962   0.45740   0.46185   0.46185   0.46772
 Alpha virt. eigenvalues --    0.47090   0.47090   0.47249   0.47493   0.48509
 Alpha virt. eigenvalues --    0.48576   0.48576   0.48986   0.48986   0.49582
 Alpha virt. eigenvalues --    0.51624   0.52028   0.53385   0.53978   0.53978
 Alpha virt. eigenvalues --    0.55981   0.57027   0.57027   0.57441   0.62745
 Alpha virt. eigenvalues --    0.62745   0.63078   0.64170   0.76448   0.76740
 Alpha virt. eigenvalues --    0.76740   0.78582   0.80690   0.80690   0.80894
 Alpha virt. eigenvalues --    0.84124   0.84196   0.84196   0.89987   0.90325
 Alpha virt. eigenvalues --    0.93032   0.93041   1.00632   1.02319   1.02319
 Alpha virt. eigenvalues --    1.02334   1.02680   1.02680   1.02716   1.03033
 Alpha virt. eigenvalues --    1.03081   1.03081   1.10734   1.10741   1.10741
 Alpha virt. eigenvalues --    1.19748   1.20176   1.23316   1.36548   1.36548
 Alpha virt. eigenvalues --    1.36997   1.40415   1.40849   1.40849   1.42204
 Alpha virt. eigenvalues --    1.42454   1.42454   1.43384   1.43947   1.48093
 Alpha virt. eigenvalues --    1.48093   1.48379   1.52258   1.52831   1.54470
 Alpha virt. eigenvalues --    1.54832   1.54832   1.54945   1.54945   1.55050
 Alpha virt. eigenvalues --    1.58620   1.58917   1.59604   1.59604   1.59973
 Alpha virt. eigenvalues --    1.63823   1.65405   1.65405   1.65480   1.72460
 Alpha virt. eigenvalues --    1.72461   1.73600   1.73600   1.73661   1.80779
 Alpha virt. eigenvalues --    1.81004   1.81004   1.83041   1.83041   1.83452
 Alpha virt. eigenvalues --    1.83542   1.96326   1.96425   2.07967   2.07967
 Alpha virt. eigenvalues --    2.08094   2.15773   2.16012   2.22793   2.22991
 Alpha virt. eigenvalues --    2.22991   2.49946   2.49946   2.50298   2.84954
 Alpha virt. eigenvalues --    2.88044   2.88292   3.12240   3.12401   3.12401
 Alpha virt. eigenvalues --    3.17824   3.18093   3.18093   3.21965   3.21965
 Alpha virt. eigenvalues --    3.22412   3.23643   3.23945   3.24441   3.24500
 Alpha virt. eigenvalues --    3.25189   3.25189   3.25371   3.25794   3.25847
 Alpha virt. eigenvalues --    3.25887   3.26014   3.26014   3.33322   3.33355
 Alpha virt. eigenvalues --    3.33355   3.77114   3.77114   3.77346   3.84203
 Alpha virt. eigenvalues --    3.84486   3.84486   3.85930   3.86225   3.86225
 Alpha virt. eigenvalues --    3.89003   3.89289   3.89356   3.89356   3.89474
 Alpha virt. eigenvalues --    3.89474   3.93062   3.93938   3.94213   4.24316
 Alpha virt. eigenvalues --    4.28069   4.28069   4.28723   4.30583   4.31046
 Alpha virt. eigenvalues --    5.63415   5.63690   5.63690   5.64824   5.65109
 Alpha virt. eigenvalues --    5.65109   5.73139   5.73450   5.73450   5.74302
 Alpha virt. eigenvalues --    5.74592   5.74592   6.26326   6.26470   6.27018
 Alpha virt. eigenvalues --    6.29372   6.29372   6.29956  25.04618  25.10638
 Alpha virt. eigenvalues --   25.10982  25.11569  25.11569  25.12072  51.65247
 Alpha virt. eigenvalues --   51.66905  51.66905  51.67354  51.78814  51.79117
 Alpha virt. eigenvalues --   73.17313
  Beta  occ. eigenvalues --  -20.57246 -20.57246 -20.57246 -20.57246 -20.56794
  Beta  occ. eigenvalues --  -20.56794 -11.29571 -11.29571 -11.29571 -11.29571
  Beta  occ. eigenvalues --  -11.29062 -11.29062  -3.46633  -2.25111  -2.25111
  Beta  occ. eigenvalues --   -2.25035  -1.42978  -1.42903  -1.42903  -1.42863
  Beta  occ. eigenvalues --   -1.42355  -1.42351  -0.75831  -0.71712  -0.71712
  Beta  occ. eigenvalues --   -0.71392  -0.71060  -0.70943  -0.63396  -0.56995
  Beta  occ. eigenvalues --   -0.56712  -0.56712  -0.56671  -0.56652  -0.56652
  Beta  occ. eigenvalues --   -0.54411  -0.54129  -0.54129  -0.53730  -0.53359
  Beta  occ. eigenvalues --   -0.53359  -0.53213  -0.52985  -0.49959  -0.49959
  Beta  occ. eigenvalues --   -0.49808  -0.37694  -0.37632  -0.37632
  Beta virt. eigenvalues --    0.11722   0.11722   0.12411   0.13302   0.18416
  Beta virt. eigenvalues --    0.18932   0.19233   0.19233   0.19321   0.19852
  Beta virt. eigenvalues --    0.19852   0.19949   0.22177   0.22177   0.22843
  Beta virt. eigenvalues --    0.22978   0.23466   0.23466   0.23552   0.23552
  Beta virt. eigenvalues --    0.24055   0.24191   0.24237   0.24237   0.25149
  Beta virt. eigenvalues --    0.25149   0.25160   0.25211   0.26172   0.26941
  Beta virt. eigenvalues --    0.26941   0.29932   0.30036   0.32554   0.32865
  Beta virt. eigenvalues --    0.32865   0.34685   0.34685   0.35022   0.37252
  Beta virt. eigenvalues --    0.37330   0.38430   0.46085   0.46539   0.46621
  Beta virt. eigenvalues --    0.46621   0.47304   0.47304   0.47448   0.47588
  Beta virt. eigenvalues --    0.48884   0.48884   0.49022   0.49380   0.49380
  Beta virt. eigenvalues --    0.49921   0.51295   0.51770   0.53822   0.54537
  Beta virt. eigenvalues --    0.54537   0.56310   0.57222   0.57222   0.57699
  Beta virt. eigenvalues --    0.63077   0.63077   0.63477   0.64316   0.76672
  Beta virt. eigenvalues --    0.77036   0.77036   0.78115   0.80906   0.80906
  Beta virt. eigenvalues --    0.81105   0.84651   0.84732   0.84732   0.89615
  Beta virt. eigenvalues --    0.90000   0.93927   0.93960   0.98657   0.98779
  Beta virt. eigenvalues --    0.98779   1.01327   1.02544   1.02667   1.02667
  Beta virt. eigenvalues --    1.02908   1.02908   1.03112   1.10965   1.10965
  Beta virt. eigenvalues --    1.10982   1.20026   1.20451   1.23492   1.36760
  Beta virt. eigenvalues --    1.36760   1.37230   1.41283   1.41757   1.41757
  Beta virt. eigenvalues --    1.43246   1.43460   1.43460   1.43529   1.44128
  Beta virt. eigenvalues --    1.48491   1.48491   1.48823   1.52582   1.53284
  Beta virt. eigenvalues --    1.55261   1.55434   1.55434   1.55650   1.55770
  Beta virt. eigenvalues --    1.55770   1.59118   1.59364   1.60103   1.60103
  Beta virt. eigenvalues --    1.60404   1.64176   1.66015   1.66015   1.66075
  Beta virt. eigenvalues --    1.72774   1.72794   1.74144   1.74144   1.74182
  Beta virt. eigenvalues --    1.81458   1.81686   1.81686   1.83570   1.83570
  Beta virt. eigenvalues --    1.83959   1.84009   1.95871   1.95987   2.08223
  Beta virt. eigenvalues --    2.08223   2.08372   2.16032   2.16298   2.22902
  Beta virt. eigenvalues --    2.23112   2.23112   2.50133   2.50133   2.50496
  Beta virt. eigenvalues --    2.84999   2.88377   2.88623   3.12594   3.12748
  Beta virt. eigenvalues --    3.12748   3.18117   3.18373   3.18373   3.23318
  Beta virt. eigenvalues --    3.23318   3.23708   3.25338   3.25605   3.26079
  Beta virt. eigenvalues --    3.26139   3.26175   3.26277   3.26277   3.26796
  Beta virt. eigenvalues --    3.26796   3.26988   3.27374   3.27440   3.33841
  Beta virt. eigenvalues --    3.33841   3.33852   3.77226   3.77226   3.77483
  Beta virt. eigenvalues --    3.84967   3.85228   3.85228   3.86661   3.86975
  Beta virt. eigenvalues --    3.86975   3.89764   3.89929   3.90106   3.90106
  Beta virt. eigenvalues --    3.90134   3.90134   3.92997   3.93944   3.94225
  Beta virt. eigenvalues --    4.24813   4.28630   4.28630   4.29293   4.31157
  Beta virt. eigenvalues --    4.31627   5.64611   5.64840   5.64840   5.65957
  Beta virt. eigenvalues --    5.66268   5.66268   5.74261   5.74595   5.74595
  Beta virt. eigenvalues --    5.75456   5.75703   5.75703   6.26667   6.26816
  Beta virt. eigenvalues --    6.27380   6.29715   6.29715   6.30312  25.04561
  Beta virt. eigenvalues --   25.10581  25.10928  25.11510  25.11510  25.12017
  Beta virt. eigenvalues --   51.65624  51.67282  51.67282  51.67741  51.79188
  Beta virt. eigenvalues --   51.79498  73.15053
          Condensed to atoms (all electrons):
               1          2          3          4          5          6
     1  Cr 120.977883 -19.375493 -19.375494 -19.375493 -19.375494 -16.830103
     2  C  -19.375493  13.960391   1.475260   3.486123   3.486123   1.637498
     3  C  -19.375494   1.475260  13.960391   3.486123   3.486123   1.637487
     4  C  -19.375493   3.486123   3.486123  13.960390   1.475260   1.637490
     5  C  -19.375494   3.486123   3.486123   1.475260  13.960391   1.637494
     6  C  -16.830103   1.637498   1.637487   1.637490   1.637494  33.516752
     7  C  -16.830103   1.637487   1.637498   1.637494   1.637490 -16.276604
     8  O    0.576687  -0.243681  -0.025159  -0.070793  -0.070793  -0.002517
     9  O    0.576687  -0.025159  -0.243681  -0.070793  -0.070793  -0.002517
    10  O    0.576687  -0.070793  -0.070793  -0.243681  -0.025159  -0.002517
    11  O    0.576687  -0.070793  -0.070793  -0.025159  -0.243681  -0.002517
    12  O    0.563289   0.013116   0.013116   0.013116   0.013116  -0.752650
    13  O    0.563289   0.013116   0.013116   0.013116   0.013116   0.278951
               7          8          9         10         11         12
     1  Cr -16.830103   0.576687   0.576687   0.576687   0.576687   0.563289
     2  C    1.637487  -0.243681  -0.025159  -0.070793  -0.070793   0.013116
     3  C    1.637498  -0.025159  -0.243681  -0.070793  -0.070793   0.013116
     4  C    1.637494  -0.070793  -0.070793  -0.243681  -0.025159   0.013116
     5  C    1.637490  -0.070793  -0.070793  -0.025159  -0.243681   0.013116
     6  C  -16.276604  -0.002517  -0.002517  -0.002517  -0.002517  -0.752650
     7  C   33.516753  -0.002517  -0.002517  -0.002517  -0.002517   0.278951
     8  O   -0.002517   8.035291  -0.000555  -0.000371  -0.000371  -0.003191
     9  O   -0.002517  -0.000555   8.035291  -0.000371  -0.000371  -0.003191
    10  O   -0.002517  -0.000371  -0.000371   8.035291  -0.000555  -0.003191
    11  O   -0.002517  -0.000371  -0.000371  -0.000555   8.035291  -0.003191
    12  O    0.278951  -0.003191  -0.003191  -0.003191  -0.003191   8.048709
    13  O   -0.752650  -0.003191  -0.003191  -0.003191  -0.003191  -0.002822
              13
     1  Cr   0.563289
     2  C    0.013116
     3  C    0.013116
     4  C    0.013116
     5  C    0.013116
     6  C    0.278951
     7  C   -0.752650
     8  O   -0.003191
     9  O   -0.003191
    10  O   -0.003191
    11  O   -0.003191
    12  O   -0.002822
    13  O    8.048709
          Atomic-Atomic Spin Densities.
               1          2          3          4          5          6
     1  Cr  17.974533  -3.568146  -3.568147  -3.568147  -3.568146  -1.018554
     2  C   -3.568146   1.898154   0.640036   1.089659   1.089659  -0.750153
     3  C   -3.568147   0.640036   1.898154   1.089659   1.089659  -0.750164
     4  C   -3.568147   1.089659   1.089659   1.898154   0.640036  -0.750160
     5  C   -3.568146   1.089659   1.089659   0.640036   1.898154  -0.750156
     6  C   -1.018554  -0.750153  -0.750164  -0.750160  -0.750156  21.416284
     7  C   -1.018554  -0.750164  -0.750153  -0.750156  -0.750160 -17.095951
     8  O    0.087524  -0.105672  -0.008423  -0.029111  -0.029111   0.040141
     9  O    0.087524  -0.008423  -0.105672  -0.029111  -0.029111   0.040141
    10  O    0.087524  -0.029111  -0.029111  -0.105672  -0.008423   0.040141
    11  O    0.087524  -0.029111  -0.029111  -0.008423  -0.105672   0.040141
    12  O    0.070751   0.054694   0.054694   0.054694   0.054694  -0.605901
    13  O    0.070751   0.054694   0.054694   0.054694   0.054694   0.294173
               7          8          9         10         11         12
     1  Cr  -1.018554   0.087524   0.087524   0.087524   0.087524   0.070751
     2  C   -0.750164  -0.105672  -0.008423  -0.029111  -0.029111   0.054694
     3  C   -0.750153  -0.008423  -0.105672  -0.029111  -0.029111   0.054694
     4  C   -0.750156  -0.029111  -0.029111  -0.105672  -0.008423   0.054694
     5  C   -0.750160  -0.029111  -0.029111  -0.008423  -0.105672   0.054694
     6  C  -17.095951   0.040141   0.040141   0.040141   0.040141  -0.605901
     7  C   21.416284   0.040141   0.040141   0.040141   0.040141   0.294173
     8  O    0.040141   0.039091   0.000043   0.000837   0.000837  -0.002031
     9  O    0.040141   0.000043   0.039091   0.000837   0.000837  -0.002031
    10  O    0.040141   0.000837   0.000837   0.039091   0.000043  -0.002031
    11  O    0.040141   0.000837   0.000837   0.000043   0.039091  -0.002031
    12  O    0.294173  -0.002031  -0.002031  -0.002031  -0.002031   0.067585
    13  O   -0.605901  -0.002031  -0.002031  -0.002031  -0.002031  -0.002165
              13
     1  Cr   0.070751
     2  C    0.054694
     3  C    0.054694
     4  C    0.054694
     5  C    0.054694
     6  C    0.294173
     7  C   -0.605901
     8  O   -0.002031
     9  O   -0.002031
    10  O   -0.002031
    11  O   -0.002031
    12  O   -0.002165
    13  O    0.067585
 Mulliken charges and spin densities:
               1          2
     1  Cr   0.750973   2.156436
     2  C    0.076807  -0.413884
     3  C    0.076807  -0.413884
     4  C    0.076807  -0.413884
     5  C    0.076807  -0.413884
     6  C   -0.476246   0.149982
     7  C   -0.476246   0.149982
     8  O   -0.188839   0.032236
     9  O   -0.188839   0.032236
    10  O   -0.188839   0.032236
    11  O   -0.188839   0.032236
    12  O   -0.175176   0.035096
    13  O   -0.175176   0.035096
 Sum of Mulliken charges =  -1.00000   1.00000
 Mulliken charges and spin densities with hydrogens summed into heavy atoms:
               1          2
     1  Cr   0.750973   2.156436
     2  C    0.076807  -0.413884
     3  C    0.076807  -0.413884
     4  C    0.076807  -0.413884
     5  C    0.076807  -0.413884
     6  C   -0.476246   0.149982
     7  C   -0.476246   0.149982
     8  O   -0.188839   0.032236
     9  O   -0.188839   0.032236
    10  O   -0.188839   0.032236
    11  O   -0.188839   0.032236
    12  O   -0.175176   0.035096
    13  O   -0.175176   0.035096
 Electronic spatial extent (au):  <R**2>=           2365.9960
 Charge=             -1.0000 electrons
 Dipole moment (field-independent basis, Debye):
    X=             -0.0000    Y=              0.0000    Z=              0.0000  Tot=              0.0000
 Quadrupole moment (field-independent basis, Debye-Ang):
   XX=           -120.4622   YY=           -120.4622   ZZ=           -165.5084
   XY=              0.0000   XZ=             -0.0000   YZ=              0.0000
 Traceless Quadrupole moment (field-independent basis, Debye-Ang):
   XX=             15.0154   YY=             15.0154   ZZ=            -30.0308
   XY=              0.0000   XZ=             -0.0000   YZ=              0.0000
 Octapole moment (field-independent basis, Debye-Ang**2):
  XXX=             -0.0000  YYY=              0.0000  ZZZ=              0.0000  XYY=             -0.0000
  XXY=              0.0000  XXZ=              0.0000  XZZ=             -0.0000  YZZ=              0.0000
  YYZ=              0.0000  XYZ=              0.0000
 Hexadecapole moment (field-independent basis, Debye-Ang**3):
 XXXX=          -1634.3459 YYYY=          -1634.3459 ZZZZ=          -3229.4622 XXXY=              0.0000
 XXXZ=             -0.0003 YYYX=              0.0000 YYYZ=              0.0001 ZZZX=             -0.0003
 ZZZY=              0.0001 XXYY=           -504.9071 XXZZ=           -859.7094 YYZZ=           -859.7094
 XXYZ=              0.0000 YYXZ=             -0.0001 ZZXY=             -0.0000
 N-N= 8.007125484233D+02 E-N=-3.398126349735D+03  KE= 7.216365732572D+02
                          Isotropic Fermi Contact Couplings
        Atom                 a.u.       MegaHertz       Gauss      10(-4) cm-1
     1  Cr(53)            -0.00000       0.00003       0.00001       0.00001
     2  C(13)             -0.00038      -0.42657      -0.15221      -0.14229
     3  C(13)             -0.00038      -0.42657      -0.15221      -0.14229
     4  C(13)             -0.00038      -0.42657      -0.15221      -0.14229
     5  C(13)             -0.00038      -0.42657      -0.15221      -0.14229
     6  C(13)              0.02392      26.89056       9.59522       8.96972
     7  C(13)              0.02392      26.89056       9.59522       8.96973
     8  O(17)              0.00236      -1.43349      -0.51150      -0.47816
     9  O(17)              0.00236      -1.43349      -0.51150      -0.47816
    10  O(17)              0.00236      -1.43349      -0.51150      -0.47816
    11  O(17)              0.00236      -1.43349      -0.51150      -0.47816
    12  O(17)              0.01967     -11.92659      -4.25570      -3.97828
    13  O(17)              0.01967     -11.92659      -4.25570      -3.97828
 --------------------------------------------------------
       Center         ----  Spin Dipole Couplings  ----
                      3XX-RR        3YY-RR        3ZZ-RR
 --------------------------------------------------------
     1   Atom        0.000805      0.000805     -0.001610
     2   Atom       -0.015400      0.001752      0.013647
     3   Atom       -0.015400      0.001752      0.013647
     4   Atom        0.001752     -0.015400      0.013647
     5   Atom        0.001752     -0.015400      0.013647
     6   Atom       -0.000162     -0.000162      0.000324
     7   Atom       -0.000162     -0.000162      0.000324
     8   Atom       -0.045671     -0.015959      0.061629
     9   Atom       -0.045671     -0.015959      0.061629
    10   Atom       -0.015959     -0.045671      0.061629
    11   Atom       -0.015959     -0.045671      0.061629
    12   Atom        0.004096      0.004096     -0.008191
    13   Atom        0.004096      0.004096     -0.008191
 --------------------------------------------------------
                        XY            XZ            YZ
 --------------------------------------------------------
     1   Atom       -0.000000     -0.000000     -0.000000
     2   Atom       -0.000000      0.000000      0.000000
     3   Atom       -0.000000      0.000000      0.000000
     4   Atom       -0.000000      0.000000     -0.000000
     5   Atom       -0.000000      0.000000      0.000000
     6   Atom        0.000000      0.000000      0.000000
     7   Atom        0.000000      0.000000     -0.000000
     8   Atom        0.000000      0.000000      0.000000
     9   Atom        0.000000      0.000000      0.000000
    10   Atom        0.000000      0.000000     -0.000000
    11   Atom        0.000000      0.000000      0.000000
    12   Atom       -0.000000      0.000000     -0.000000
    13   Atom       -0.000000      0.000000     -0.000000
 --------------------------------------------------------


 ---------------------------------------------------------------------------------
              Anisotropic Spin Dipole Couplings in Principal Axis System
 ---------------------------------------------------------------------------------

       Atom             a.u.   MegaHertz   Gauss  10(-4) cm-1        Axes

              Baa    -0.0016     0.049     0.017     0.016  0.0000  0.0000  1.0000
     1 Cr(53) Bbb     0.0008    -0.024    -0.009    -0.008  0.9951  0.0990 -0.0000
              Bcc     0.0008    -0.024    -0.009    -0.008 -0.0990  0.9951 -0.0000
 
              Baa    -0.0154    -2.066    -0.737    -0.689  1.0000  0.0000 -0.0000
     2 C(13)  Bbb     0.0018     0.235     0.084     0.078 -0.0000  1.0000 -0.0000
              Bcc     0.0136     1.831     0.653     0.611  0.0000  0.0000  1.0000
 
              Baa    -0.0154    -2.066    -0.737    -0.689  1.0000  0.0000 -0.0000
     3 C(13)  Bbb     0.0018     0.235     0.084     0.078 -0.0000  1.0000 -0.0000
              Bcc     0.0136     1.831     0.653     0.611  0.0000  0.0000  1.0000
 
              Baa    -0.0154    -2.066    -0.737    -0.689  0.0000  1.0000  0.0000
     4 C(13)  Bbb     0.0018     0.235     0.084     0.078  1.0000 -0.0000 -0.0000
              Bcc     0.0136     1.831     0.653     0.611  0.0000 -0.0000  1.0000
 
              Baa    -0.0154    -2.066    -0.737    -0.689  0.0000  1.0000 -0.0000
     5 C(13)  Bbb     0.0018     0.235     0.084     0.078  1.0000 -0.0000 -0.0000
              Bcc     0.0136     1.831     0.653     0.611  0.0000  0.0000  1.0000
 
              Baa    -0.0002    -0.022    -0.008    -0.007  0.7997 -0.6004 -0.0000
     6 C(13)  Bbb    -0.0002    -0.022    -0.008    -0.007  0.6004  0.7997 -0.0000
              Bcc     0.0003     0.043     0.016     0.014  0.0000  0.0000  1.0000
 
              Baa    -0.0002    -0.022    -0.008    -0.007  0.8011 -0.5986 -0.0000
     7 C(13)  Bbb    -0.0002    -0.022    -0.008    -0.007  0.5986  0.8011 -0.0000
              Bcc     0.0003     0.043     0.016     0.014  0.0000 -0.0000  1.0000
 
              Baa    -0.0457     3.305     1.179     1.102  1.0000 -0.0000 -0.0000
     8 O(17)  Bbb    -0.0160     1.155     0.412     0.385  0.0000  1.0000 -0.0000
              Bcc     0.0616    -4.459    -1.591    -1.488  0.0000  0.0000  1.0000
 
              Baa    -0.0457     3.305     1.179     1.102  1.0000 -0.0000 -0.0000
     9 O(17)  Bbb    -0.0160     1.155     0.412     0.385  0.0000  1.0000 -0.0000
              Bcc     0.0616    -4.459    -1.591    -1.488  0.0000  0.0000  1.0000
 
              Baa    -0.0457     3.305     1.179     1.102 -0.0000  1.0000  0.0000
    10 O(17)  Bbb    -0.0160     1.155     0.412     0.385  1.0000  0.0000 -0.0000
              Bcc     0.0616    -4.459    -1.591    -1.488  0.0000 -0.0000  1.0000
 
              Baa    -0.0457     3.305     1.179     1.102 -0.0000  1.0000 -0.0000
    11 O(17)  Bbb    -0.0160     1.155     0.412     0.385  1.0000  0.0000 -0.0000
              Bcc     0.0616    -4.459    -1.591    -1.488  0.0000  0.0000  1.0000
 
              Baa    -0.0082     0.593     0.211     0.198 -0.0000  0.0000  1.0000
    12 O(17)  Bbb     0.0041    -0.296    -0.106    -0.099  0.0287  0.9996 -0.0000
              Bcc     0.0041    -0.296    -0.106    -0.099  0.9996 -0.0287  0.0000
 
              Baa    -0.0082     0.593     0.211     0.198 -0.0000  0.0000  1.0000
    13 O(17)  Bbb     0.0041    -0.296    -0.106    -0.099  0.0292  0.9996 -0.0000
              Bcc     0.0041    -0.296    -0.106    -0.099  0.9996 -0.0292  0.0000
 

 ---------------------------------------------------------------------------------

 1\1\GINC-N001\SP\UCCSD-FC\Gen\C6Cr1O6(1-,2)\JORGE\02-Feb-2021\0\\# UCC
 SD/ChkBasis NoSymm Guess=Read Geom=Check Density=Current\\Single point
  of Cr(CO)6^-1 at the UCCSD/GenECP/6-31+G(d) level of theory of geomet
 rically optimized Cr(CO)6 at the CAM-B3LYP/GenECP/6-31+G(d) level of t
 heory\\-1,2\Cr,0,0.,-0.0000000032,0.\C,0,1.913598115,-0.0000000001,-0.
 0000000001\C,0,-1.913598115,-0.0000000001,0.\C,0,0.,1.9135981151,0.000
 0000001\C,0,0.,-1.9135981151,0.0000000001\C,0,0.,-0.0000000001,1.91359
 81154\C,0,0.,-0.0000000001,-1.9135981155\O,0,3.0485736889,0.0000000023
 ,-0.0000000002\O,0,-3.048573689,0.0000000023,-0.0000000002\O,0,0.,3.04
 85736881,0.0000000003\O,0,0.,-3.0485736899,0.0000000003\O,0,0.,0.00000
 00005,3.0485736891\O,0,0.,0.0000000005,-3.0485736892\\Version=ES64L-G1
 6RevB.01\HF=-762.1076118\MP2=-764.3042552\MP3=-764.1396225\MP4D=-764.2
 669097\MP4DQ=-764.2324875\PUHF=-762.1476365\PMP2-0=-764.3415973\PMP3-0
 =-764.1695603\MP4SDQ=-764.3230704\CCSD=-764.2817912\S2=1.495373\S2-1=1
 .350263\S2A=1.340093\RMSD=1.812e-09\Dipole=0.,0.,0.0000002\Quadrupole=
 11.163587,11.163587,-22.3271739,0.,-0.0000136,0.000004\PG=OH [O(Cr1),3
 C4(O1C1.C1O1)]\\@


 One man practicing sportsmanship is far better than 50 preaching it.
 -- Knute K. Rockne
 Job cpu time:       7 days  6 hours 17 minutes  7.5 seconds.
 Elapsed time:       0 days 11 hours 15 minutes 29.2 seconds.
 File lengths (MBytes):  RWF=  84022 Int=      0 D2E=      0 Chk=     12 Scr=      1
 Normal termination of Gaussian 16 at Tue Feb  2 20:48:29 2021.
