Single point at the CCSD/GenECP/6-31+G(d) level of theory of geometrical
SP        RCCSD-FC                                                    Gen                 
Number of atoms                            I               13
Info1-9                                    I   N=           9
          12          11           0           0           0         110
           1          14         301
Full Title                                 C   N=          12
Single point at the CCSD/GenECP/6-31+G(d) level of theory of
 geometrically optimized Cr(CO)6 at the CAM-B3LYP/GenECP/6-3
1+G(d) level of theory  
Route                                      C   N=           5
# CCSD/ChkBasis NoSymm Guess=Read Geom=Check Density=Current
Charge                                     I                0
Multiplicity                               I                1
Number of electrons                        I               98
Number of alpha electrons                  I               49
Number of beta electrons                   I               49
Number of basis functions                  I              286
Number of independent functions            I              286
Number of point charges in /Mol/           I                0
Number of translation vectors              I                0
Atomic numbers                             I   N=          13
          24           6           6           6           6           6
           6           8           8           8           8           8
           8
Nuclear charges                            R   N=          13
  1.40000000E+01  6.00000000E+00  6.00000000E+00  6.00000000E+00  6.00000000E+00
  6.00000000E+00  6.00000000E+00  8.00000000E+00  8.00000000E+00  8.00000000E+00
  8.00000000E+00  8.00000000E+00  8.00000000E+00
Current cartesian coordinates              R   N=          39
 -3.92869521E-11 -6.07475630E-09 -6.36983004E-11  3.61617635E+00 -1.76649001E-10
 -1.53895413E-10 -3.61617635E+00 -1.76816826E-10 -8.23697329E-11 -2.64148703E-12
  3.61617635E+00  1.66597998E-10  1.46527161E-11 -3.61617635E+00  1.35915577E-10
 -4.34774943E-12 -2.74970385E-10  3.61617635E+00 -2.60837010E-11 -2.78417743E-10
 -3.61617635E+00  5.76096934E+00  4.29764328E-09 -3.49491612E-10 -5.76096934E+00
  4.30131310E-09 -4.28864847E-10  5.56953801E-11  5.76096934E+00  5.27043291E-10
  4.86652345E-11 -5.76096934E+00  5.36802229E-10  1.79416745E-11  8.80021356E-10
  5.76096934E+00 -3.28298246E-12  8.72760865E-10 -5.76096934E+00
Number of symbols in /Mol/                 I                0
Force Field                                I                0
Atom Types                                 C   N=          13
                                                            
                                                            
                                    
Int Atom Types                             I   N=          13
           0           0           0           0           0           0
           0           0           0           0           0           0
           0
MM charges                                 R   N=          13
  0.00000000E+00  0.00000000E+00  0.00000000E+00  0.00000000E+00  0.00000000E+00
  0.00000000E+00  0.00000000E+00  0.00000000E+00  0.00000000E+00  0.00000000E+00
  0.00000000E+00  0.00000000E+00  0.00000000E+00
Integer atomic weights                     I   N=          13
          52          12          12          12          12          12
          12          16          16          16          16          16
          16
Real atomic weights                        R   N=          13
  5.19405097E+01  1.20000000E+01  1.20000000E+01  1.20000000E+01  1.20000000E+01
  1.20000000E+01  1.20000000E+01  1.59949146E+01  1.59949146E+01  1.59949146E+01
  1.59949146E+01  1.59949146E+01  1.59949146E+01
Atom fragment info                         I   N=          13
           0           0           0           0           0           0
           0           0           0           0           0           0
           0
Atom residue num                           I   N=          13
           0           0           0           0           0           0
           0           0           0           0           0           0
           0
Nuclear spins                              I   N=          13
           0           0           0           0           0           0
           0           0           0           0           0           0
           0
Nuclear ZEff                               R   N=          13
 -1.16400000E+01 -3.60000000E+00 -3.60000000E+00 -3.60000000E+00 -3.60000000E+00
 -3.60000000E+00 -3.60000000E+00 -5.60000000E+00 -5.60000000E+00 -5.60000000E+00
 -5.60000000E+00 -5.60000000E+00 -5.60000000E+00
Nuclear ZNuc                               R   N=          13
  2.40000000E+01  6.00000000E+00  6.00000000E+00  6.00000000E+00  6.00000000E+00
  6.00000000E+00  6.00000000E+00  8.00000000E+00  8.00000000E+00  8.00000000E+00
  8.00000000E+00  8.00000000E+00  8.00000000E+00
Nuclear QMom                               R   N=          13
  0.00000000E+00  0.00000000E+00  0.00000000E+00  0.00000000E+00  0.00000000E+00
  0.00000000E+00  0.00000000E+00  0.00000000E+00  0.00000000E+00  0.00000000E+00
  0.00000000E+00  0.00000000E+00  0.00000000E+00
Nuclear GFac                               R   N=          13
  0.00000000E+00  0.00000000E+00  0.00000000E+00  0.00000000E+00  0.00000000E+00
  0.00000000E+00  0.00000000E+00  0.00000000E+00  0.00000000E+00  0.00000000E+00
  0.00000000E+00  0.00000000E+00  0.00000000E+00
MicOpt                                     I   N=          13
          -1          -1          -1          -1          -1          -1
          -1          -1          -1          -1          -1          -1
          -1
Number of residues                         I                0
Number of secondary structures             I                0
Redundant internal dimensions              I   N=           4
          50          12          30           8
Redundant internal coordinate indices      I   N=         200
           1           2           0           0           1           3
           0           0           1           4           0           0
           1           5           0           0           1           6
           0           0           1           7           0           0
           2           8           0           0           3           9
           0           0           4          10           0           0
           5          11           0           0           6          12
           0           0           7          13           0           0
           2           1           4           0           2           1
           5           0           2           1           6           0
           2           1           7           0           3           1
           4           0           3           1           5           0
           3           1           6           0           3           1
           7           0           4           1           6           0
           4           1           7           0           5           1
           6           0           5           1           7           0
           2           1           3         -41           4           1
           5         -21           6           1           7         -21
           1           2           8        -101           1           3
           9        -101           1           4          10         -81
           1           5          11         -81           1           6
          12         -81           1           7          13         -81
           2           1           3         -42           4           1
           5         -22           6           1           7         -22
           1           2           8        -102           1           3
           9        -102           1           4          10         -82
           1           5          11         -82           1           6
          12         -82           1           7          13         -82
           2           1           6           4           2           1
           7           4           2           1           6           5
           2           1           7           5           3           1
           6           4           3           1           7           4
           3           1           6           5           3           1
           7           5
Redundant internal coordinates             R   N=          50
  3.61617635E+00  3.61617635E+00  3.61617636E+00  3.61617634E+00  3.61617635E+00
  3.61617635E+00  2.14479299E+00  2.14479299E+00  2.14479299E+00  2.14479299E+00
  2.14479299E+00  2.14479299E+00  1.57079633E+00  1.57079633E+00  1.57079633E+00
  1.57079633E+00  1.57079633E+00  1.57079633E+00  1.57079633E+00  1.57079633E+00
  1.57079633E+00  1.57079633E+00  1.57079633E+00  1.57079633E+00  3.14159265E+00
  3.14159265E+00  3.14159265E+00  3.14159265E+00  3.14159265E+00  3.14159265E+00
  3.14159265E+00  3.14159265E+00  3.14159265E+00  3.14159265E+00  3.14159265E+00
  3.14159265E+00  3.14159265E+00  3.14159265E+00  3.14159265E+00  3.14159265E+00
  3.14159265E+00  3.14159265E+00  1.57079633E+00 -1.57079633E+00 -1.57079633E+00
  1.57079633E+00 -1.57079633E+00  1.57079633E+00  1.57079633E+00 -1.57079633E+00
ZRed-IntVec                                I   N=          50
           0           0           0           0           0           0
           0           0           0           0           0           0
           0           0           0           0           0           0
           0           0           0           0           0           0
           0           0           0           0           0           0
           0           0           0           0           0           0
           0           0           0           0           0           0
           0           0           0           0           0           0
           0           0
ZRed-FPVec                                 R   N=          50
  0.00000000E+00  0.00000000E+00  0.00000000E+00  0.00000000E+00  0.00000000E+00
  0.00000000E+00  0.00000000E+00  0.00000000E+00  0.00000000E+00  0.00000000E+00
  0.00000000E+00  0.00000000E+00  0.00000000E+00  0.00000000E+00  0.00000000E+00
  0.00000000E+00  0.00000000E+00  0.00000000E+00  0.00000000E+00  0.00000000E+00
  0.00000000E+00  0.00000000E+00  0.00000000E+00  0.00000000E+00  0.00000000E+00
  0.00000000E+00  0.00000000E+00  0.00000000E+00  0.00000000E+00  0.00000000E+00
  0.00000000E+00  0.00000000E+00  0.00000000E+00  0.00000000E+00  0.00000000E+00
  0.00000000E+00  0.00000000E+00  0.00000000E+00  0.00000000E+00  0.00000000E+00
  0.00000000E+00  0.00000000E+00  0.00000000E+00  0.00000000E+00  0.00000000E+00
  0.00000000E+00  0.00000000E+00  0.00000000E+00  0.00000000E+00  0.00000000E+00
ZRed-Constraint1                           R   N=          50
  3.61617635E+00  3.61617635E+00  3.61617636E+00  3.61617634E+00  3.61617635E+00
  3.61617635E+00  2.14479299E+00  2.14479299E+00  2.14479299E+00  2.14479299E+00
  2.14479299E+00  2.14479299E+00  1.57079633E+00  1.57079633E+00  1.57079633E+00
  1.57079633E+00  1.57079633E+00  1.57079633E+00  1.57079633E+00  1.57079633E+00
  1.57079633E+00  1.57079633E+00  1.57079633E+00  1.57079633E+00  3.14159265E+00
  3.14159265E+00  3.14159265E+00  3.14159265E+00  3.14159265E+00  3.14159265E+00
  3.14159265E+00  3.14159265E+00  3.14159265E+00  3.14159265E+00  3.14159265E+00
  3.14159265E+00  3.14159265E+00  3.14159265E+00  3.14159265E+00  3.14159265E+00
  3.14159265E+00  3.14159265E+00  1.57079633E+00 -1.57079633E+00 -1.57079633E+00
  1.57079633E+00 -1.57079633E+00  1.57079633E+00  1.57079633E+00 -1.57079633E+00
ZRed-Constraint2                           R   N=          50
  3.61617635E+00  3.61617635E+00  3.61617636E+00  3.61617634E+00  3.61617635E+00
  3.61617635E+00  2.14479299E+00  2.14479299E+00  2.14479299E+00  2.14479299E+00
  2.14479299E+00  2.14479299E+00  1.57079633E+00  1.57079633E+00  1.57079633E+00
  1.57079633E+00  1.57079633E+00  1.57079633E+00  1.57079633E+00  1.57079633E+00
  1.57079633E+00  1.57079633E+00  1.57079633E+00  1.57079633E+00  3.14159265E+00
  3.14159265E+00  3.14159265E+00  3.14159265E+00  3.14159265E+00  3.14159265E+00
  3.14159265E+00  3.14159265E+00  3.14159265E+00  3.14159265E+00  3.14159265E+00
  3.14159265E+00  3.14159265E+00  3.14159265E+00  3.14159265E+00  3.14159265E+00
  3.14159265E+00  3.14159265E+00  1.57079633E+00 -1.57079633E+00 -1.57079633E+00
  1.57079633E+00 -1.57079633E+00  1.57079633E+00  1.57079633E+00 -1.57079633E+00
Number of contracted shells                I               80
Number of primitive shells                 I              173
Pure/Cartesian d shells                    I                0
Pure/Cartesian f shells                    I                0
Highest angular momentum                   I                2
Largest degree of contraction              I                6
Shell types                                I   N=          80
           0           0           0           1           1           1
          -2          -2           0          -1          -1          -1
          -1          -2           0          -1          -1          -1
          -1          -2           0          -1          -1          -1
          -1          -2           0          -1          -1          -1
          -1          -2           0          -1          -1          -1
          -1          -2           0          -1          -1          -1
          -1          -2           0          -1          -1          -1
          -1          -2           0          -1          -1          -1
          -1          -2           0          -1          -1          -1
          -1          -2           0          -1          -1          -1
          -1          -2           0          -1          -1          -1
          -1          -2           0          -1          -1          -1
          -1          -2
Number of primitives per shell             I   N=          80
           3           3           1           3           1           1
           4           1           6           3           1           1
           1           1           6           3           1           1
           1           1           6           3           1           1
           1           1           6           3           1           1
           1           1           6           3           1           1
           1           1           6           3           1           1
           1           1           6           3           1           1
           1           1           6           3           1           1
           1           1           6           3           1           1
           1           1           6           3           1           1
           1           1           6           3           1           1
           1           1           6           3           1           1
           1           1
Shell to atom map                          I   N=          80
           1           1           1           1           1           1
           1           1           2           2           2           2
           2           2           3           3           3           3
           3           3           4           4           4           4
           4           4           5           5           5           5
           5           5           6           6           6           6
           6           6           7           7           7           7
           7           7           8           8           8           8
           8           8           9           9           9           9
           9           9          10          10          10          10
          10          10          11          11          11          11
          11          11          12          12          12          12
          12          12          13          13          13          13
          13          13
Primitive exponents                        R   N=         173
  1.44900000E+00  5.49600000E-01  1.05200000E-01  5.36100000E+00  1.44900000E+00
  5.49600000E-01  3.64000000E-02  1.64200000E+01  1.91400000E+00  6.24100000E-01
  6.30000000E-02  1.90000000E-02  2.89500000E+01  7.70800000E+00  2.49500000E+00
  7.65500000E-01  1.88900000E-01  4.56324000E+03  6.82024000E+02  1.54973000E+02
  4.44553000E+01  1.30290000E+01  1.82773000E+00  2.09642000E+01  4.80331000E+00
  1.45933000E+00  4.83456000E-01  1.45585000E-01  4.38000000E-02  6.26000000E-01
  4.56324000E+03  6.82024000E+02  1.54973000E+02  4.44553000E+01  1.30290000E+01
  1.82773000E+00  2.09642000E+01  4.80331000E+00  1.45933000E+00  4.83456000E-01
  1.45585000E-01  4.38000000E-02  6.26000000E-01  4.56324000E+03  6.82024000E+02
  1.54973000E+02  4.44553000E+01  1.30290000E+01  1.82773000E+00  2.09642000E+01
  4.80331000E+00  1.45933000E+00  4.83456000E-01  1.45585000E-01  4.38000000E-02
  6.26000000E-01  4.56324000E+03  6.82024000E+02  1.54973000E+02  4.44553000E+01
  1.30290000E+01  1.82773000E+00  2.09642000E+01  4.80331000E+00  1.45933000E+00
  4.83456000E-01  1.45585000E-01  4.38000000E-02  6.26000000E-01  4.56324000E+03
  6.82024000E+02  1.54973000E+02  4.44553000E+01  1.30290000E+01  1.82773000E+00
  2.09642000E+01  4.80331000E+00  1.45933000E+00  4.83456000E-01  1.45585000E-01
  4.38000000E-02  6.26000000E-01  4.56324000E+03  6.82024000E+02  1.54973000E+02
  4.44553000E+01  1.30290000E+01  1.82773000E+00  2.09642000E+01  4.80331000E+00
  1.45933000E+00  4.83456000E-01  1.45585000E-01  4.38000000E-02  6.26000000E-01
  8.58850000E+03  1.29723000E+03  2.99296000E+02  8.73771000E+01  2.56789000E+01
  3.74004000E+00  4.21175000E+01  9.62837000E+00  2.85332000E+00  9.05661000E-01
  2.55611000E-01  8.45000000E-02  1.29200000E+00  8.58850000E+03  1.29723000E+03
  2.99296000E+02  8.73771000E+01  2.56789000E+01  3.74004000E+00  4.21175000E+01
  9.62837000E+00  2.85332000E+00  9.05661000E-01  2.55611000E-01  8.45000000E-02
  1.29200000E+00  8.58850000E+03  1.29723000E+03  2.99296000E+02  8.73771000E+01
  2.56789000E+01  3.74004000E+00  4.21175000E+01  9.62837000E+00  2.85332000E+00
  9.05661000E-01  2.55611000E-01  8.45000000E-02  1.29200000E+00  8.58850000E+03
  1.29723000E+03  2.99296000E+02  8.73771000E+01  2.56789000E+01  3.74004000E+00
  4.21175000E+01  9.62837000E+00  2.85332000E+00  9.05661000E-01  2.55611000E-01
  8.45000000E-02  1.29200000E+00  8.58850000E+03  1.29723000E+03  2.99296000E+02
  8.73771000E+01  2.56789000E+01  3.74004000E+00  4.21175000E+01  9.62837000E+00
  2.85332000E+00  9.05661000E-01  2.55611000E-01  8.45000000E-02  1.29200000E+00
  8.58850000E+03  1.29723000E+03  2.99296000E+02  8.73771000E+01  2.56789000E+01
  3.74004000E+00  4.21175000E+01  9.62837000E+00  2.85332000E+00  9.05661000E-01
  2.55611000E-01  8.45000000E-02  1.29200000E+00
Contraction coefficients                   R   N=         173
 -9.74613125E-02 -3.54204825E-01  1.19207396E+00 -3.80568899E-01  7.79562498E-01
  4.73077699E-01  1.00000000E+00 -4.61396975E-02  6.10996467E-01  4.85963474E-01
  1.00000000E+00  1.00000000E+00  3.37787013E-02  1.78034507E-01  4.37000817E-01
  5.94179523E-01  1.00000000E+00  1.96665025E-03  1.52306019E-02  7.61269097E-02
  2.60801033E-01  6.16462078E-01  2.21006028E-01  1.14660081E-01  9.19999648E-01
 -3.03068213E-03  1.00000000E+00  1.00000000E+00  1.00000000E+00  1.00000000E+00
  1.96665025E-03  1.52306019E-02  7.61269097E-02  2.60801033E-01  6.16462078E-01
  2.21006028E-01  1.14660081E-01  9.19999648E-01 -3.03068213E-03  1.00000000E+00
  1.00000000E+00  1.00000000E+00  1.00000000E+00  1.96665025E-03  1.52306019E-02
  7.61269097E-02  2.60801033E-01  6.16462078E-01  2.21006028E-01  1.14660081E-01
  9.19999648E-01 -3.03068213E-03  1.00000000E+00  1.00000000E+00  1.00000000E+00
  1.00000000E+00  1.96665025E-03  1.52306019E-02  7.61269097E-02  2.60801033E-01
  6.16462078E-01  2.21006028E-01  1.14660081E-01  9.19999648E-01 -3.03068213E-03
  1.00000000E+00  1.00000000E+00  1.00000000E+00  1.00000000E+00  1.96665025E-03
  1.52306019E-02  7.61269097E-02  2.60801033E-01  6.16462078E-01  2.21006028E-01
  1.14660081E-01  9.19999648E-01 -3.03068213E-03  1.00000000E+00  1.00000000E+00
  1.00000000E+00  1.00000000E+00  1.96665025E-03  1.52306019E-02  7.61269097E-02
  2.60801033E-01  6.16462078E-01  2.21006028E-01  1.14660081E-01  9.19999648E-01
 -3.03068213E-03  1.00000000E+00  1.00000000E+00  1.00000000E+00  1.00000000E+00
  1.89515008E-03  1.43859006E-02  7.07320031E-02  2.40001011E-01  5.94797026E-01
  2.80802012E-01  1.13889012E-01  9.20811101E-01 -3.27447036E-03  1.00000000E+00
  1.00000000E+00  1.00000000E+00  1.00000000E+00  1.89515008E-03  1.43859006E-02
  7.07320031E-02  2.40001011E-01  5.94797026E-01  2.80802012E-01  1.13889012E-01
  9.20811101E-01 -3.27447036E-03  1.00000000E+00  1.00000000E+00  1.00000000E+00
  1.00000000E+00  1.89515008E-03  1.43859006E-02  7.07320031E-02  2.40001011E-01
  5.94797026E-01  2.80802012E-01  1.13889012E-01  9.20811101E-01 -3.27447036E-03
  1.00000000E+00  1.00000000E+00  1.00000000E+00  1.00000000E+00  1.89515008E-03
  1.43859006E-02  7.07320031E-02  2.40001011E-01  5.94797026E-01  2.80802012E-01
  1.13889012E-01  9.20811101E-01 -3.27447036E-03  1.00000000E+00  1.00000000E+00
  1.00000000E+00  1.00000000E+00  1.89515008E-03  1.43859006E-02  7.07320031E-02
  2.40001011E-01  5.94797026E-01  2.80802012E-01  1.13889012E-01  9.20811101E-01
 -3.27447036E-03  1.00000000E+00  1.00000000E+00  1.00000000E+00  1.00000000E+00
  1.89515008E-03  1.43859006E-02  7.07320031E-02  2.40001011E-01  5.94797026E-01
  2.80802012E-01  1.13889012E-01  9.20811101E-01 -3.27447036E-03  1.00000000E+00
  1.00000000E+00  1.00000000E+00  1.00000000E+00
P(S=P) Contraction coefficients            R   N=         173
  0.00000000E+00  0.00000000E+00  0.00000000E+00  0.00000000E+00  0.00000000E+00
  0.00000000E+00  0.00000000E+00  0.00000000E+00  0.00000000E+00  0.00000000E+00
  0.00000000E+00  0.00000000E+00  0.00000000E+00  0.00000000E+00  0.00000000E+00
  0.00000000E+00  0.00000000E+00  0.00000000E+00  0.00000000E+00  0.00000000E+00
  0.00000000E+00  0.00000000E+00  0.00000000E+00  4.02486927E-02  2.37593957E-01
  8.15853851E-01  1.00000000E+00  1.00000000E+00  1.00000000E+00  0.00000000E+00
  0.00000000E+00  0.00000000E+00  0.00000000E+00  0.00000000E+00  0.00000000E+00
  0.00000000E+00  4.02486927E-02  2.37593957E-01  8.15853851E-01  1.00000000E+00
  1.00000000E+00  1.00000000E+00  0.00000000E+00  0.00000000E+00  0.00000000E+00
  0.00000000E+00  0.00000000E+00  0.00000000E+00  0.00000000E+00  4.02486927E-02
  2.37593957E-01  8.15853851E-01  1.00000000E+00  1.00000000E+00  1.00000000E+00
  0.00000000E+00  0.00000000E+00  0.00000000E+00  0.00000000E+00  0.00000000E+00
  0.00000000E+00  0.00000000E+00  4.02486927E-02  2.37593957E-01  8.15853851E-01
  1.00000000E+00  1.00000000E+00  1.00000000E+00  0.00000000E+00  0.00000000E+00
  0.00000000E+00  0.00000000E+00  0.00000000E+00  0.00000000E+00  0.00000000E+00
  4.02486927E-02  2.37593957E-01  8.15853851E-01  1.00000000E+00  1.00000000E+00
  1.00000000E+00  0.00000000E+00  0.00000000E+00  0.00000000E+00  0.00000000E+00
  0.00000000E+00  0.00000000E+00  0.00000000E+00  4.02486927E-02  2.37593957E-01
  8.15853851E-01  1.00000000E+00  1.00000000E+00  1.00000000E+00  0.00000000E+00
  0.00000000E+00  0.00000000E+00  0.00000000E+00  0.00000000E+00  0.00000000E+00
  0.00000000E+00  3.65113974E-02  2.37152983E-01  8.19701941E-01  1.00000000E+00
  1.00000000E+00  1.00000000E+00  0.00000000E+00  0.00000000E+00  0.00000000E+00
  0.00000000E+00  0.00000000E+00  0.00000000E+00  0.00000000E+00  3.65113974E-02
  2.37152983E-01  8.19701941E-01  1.00000000E+00  1.00000000E+00  1.00000000E+00
  0.00000000E+00  0.00000000E+00  0.00000000E+00  0.00000000E+00  0.00000000E+00
  0.00000000E+00  0.00000000E+00  3.65113974E-02  2.37152983E-01  8.19701941E-01
  1.00000000E+00  1.00000000E+00  1.00000000E+00  0.00000000E+00  0.00000000E+00
  0.00000000E+00  0.00000000E+00  0.00000000E+00  0.00000000E+00  0.00000000E+00
  3.65113974E-02  2.37152983E-01  8.19701941E-01  1.00000000E+00  1.00000000E+00
  1.00000000E+00  0.00000000E+00  0.00000000E+00  0.00000000E+00  0.00000000E+00
  0.00000000E+00  0.00000000E+00  0.00000000E+00  3.65113974E-02  2.37152983E-01
  8.19701941E-01  1.00000000E+00  1.00000000E+00  1.00000000E+00  0.00000000E+00
  0.00000000E+00  0.00000000E+00  0.00000000E+00  0.00000000E+00  0.00000000E+00
  0.00000000E+00  3.65113974E-02  2.37152983E-01  8.19701941E-01  1.00000000E+00
  1.00000000E+00  1.00000000E+00  0.00000000E+00
Coordinates of each shell                  R   N=         240
 -3.92869521E-11 -6.07475630E-09 -6.36983004E-11 -3.92869521E-11 -6.07475630E-09
 -6.36983004E-11 -3.92869521E-11 -6.07475630E-09 -6.36983004E-11 -3.92869521E-11
 -6.07475630E-09 -6.36983004E-11 -3.92869521E-11 -6.07475630E-09 -6.36983004E-11
 -3.92869521E-11 -6.07475630E-09 -6.36983004E-11 -3.92869521E-11 -6.07475630E-09
 -6.36983004E-11 -3.92869521E-11 -6.07475630E-09 -6.36983004E-11  3.61617635E+00
 -1.76649001E-10 -1.53895413E-10  3.61617635E+00 -1.76649001E-10 -1.53895413E-10
  3.61617635E+00 -1.76649001E-10 -1.53895413E-10  3.61617635E+00 -1.76649001E-10
 -1.53895413E-10  3.61617635E+00 -1.76649001E-10 -1.53895413E-10  3.61617635E+00
 -1.76649001E-10 -1.53895413E-10 -3.61617635E+00 -1.76816826E-10 -8.23697329E-11
 -3.61617635E+00 -1.76816826E-10 -8.23697329E-11 -3.61617635E+00 -1.76816826E-10
 -8.23697329E-11 -3.61617635E+00 -1.76816826E-10 -8.23697329E-11 -3.61617635E+00
 -1.76816826E-10 -8.23697329E-11 -3.61617635E+00 -1.76816826E-10 -8.23697329E-11
 -2.64148703E-12  3.61617635E+00  1.66597998E-10 -2.64148703E-12  3.61617635E+00
  1.66597998E-10 -2.64148703E-12  3.61617635E+00  1.66597998E-10 -2.64148703E-12
  3.61617635E+00  1.66597998E-10 -2.64148703E-12  3.61617635E+00  1.66597998E-10
 -2.64148703E-12  3.61617635E+00  1.66597998E-10  1.46527161E-11 -3.61617635E+00
  1.35915577E-10  1.46527161E-11 -3.61617635E+00  1.35915577E-10  1.46527161E-11
 -3.61617635E+00  1.35915577E-10  1.46527161E-11 -3.61617635E+00  1.35915577E-10
  1.46527161E-11 -3.61617635E+00  1.35915577E-10  1.46527161E-11 -3.61617635E+00
  1.35915577E-10 -4.34774943E-12 -2.74970385E-10  3.61617635E+00 -4.34774943E-12
 -2.74970385E-10  3.61617635E+00 -4.34774943E-12 -2.74970385E-10  3.61617635E+00
 -4.34774943E-12 -2.74970385E-10  3.61617635E+00 -4.34774943E-12 -2.74970385E-10
  3.61617635E+00 -4.34774943E-12 -2.74970385E-10  3.61617635E+00 -2.60837010E-11
 -2.78417743E-10 -3.61617635E+00 -2.60837010E-11 -2.78417743E-10 -3.61617635E+00
 -2.60837010E-11 -2.78417743E-10 -3.61617635E+00 -2.60837010E-11 -2.78417743E-10
 -3.61617635E+00 -2.60837010E-11 -2.78417743E-10 -3.61617635E+00 -2.60837010E-11
 -2.78417743E-10 -3.61617635E+00  5.76096934E+00  4.29764328E-09 -3.49491612E-10
  5.76096934E+00  4.29764328E-09 -3.49491612E-10  5.76096934E+00  4.29764328E-09
 -3.49491612E-10  5.76096934E+00  4.29764328E-09 -3.49491612E-10  5.76096934E+00
  4.29764328E-09 -3.49491612E-10  5.76096934E+00  4.29764328E-09 -3.49491612E-10
 -5.76096934E+00  4.30131310E-09 -4.28864847E-10 -5.76096934E+00  4.30131310E-09
 -4.28864847E-10 -5.76096934E+00  4.30131310E-09 -4.28864847E-10 -5.76096934E+00
  4.30131310E-09 -4.28864847E-10 -5.76096934E+00  4.30131310E-09 -4.28864847E-10
 -5.76096934E+00  4.30131310E-09 -4.28864847E-10  5.56953801E-11  5.76096934E+00
  5.27043291E-10  5.56953801E-11  5.76096934E+00  5.27043291E-10  5.56953801E-11
  5.76096934E+00  5.27043291E-10  5.56953801E-11  5.76096934E+00  5.27043291E-10
  5.56953801E-11  5.76096934E+00  5.27043291E-10  5.56953801E-11  5.76096934E+00
  5.27043291E-10  4.86652345E-11 -5.76096934E+00  5.36802229E-10  4.86652345E-11
 -5.76096934E+00  5.36802229E-10  4.86652345E-11 -5.76096934E+00  5.36802229E-10
  4.86652345E-11 -5.76096934E+00  5.36802229E-10  4.86652345E-11 -5.76096934E+00
  5.36802229E-10  4.86652345E-11 -5.76096934E+00  5.36802229E-10  1.79416745E-11
  8.80021356E-10  5.76096934E+00  1.79416745E-11  8.80021356E-10  5.76096934E+00
  1.79416745E-11  8.80021356E-10  5.76096934E+00  1.79416745E-11  8.80021356E-10
  5.76096934E+00  1.79416745E-11  8.80021356E-10  5.76096934E+00  1.79416745E-11
  8.80021356E-10  5.76096934E+00 -3.28298246E-12  8.72760865E-10 -5.76096934E+00
 -3.28298246E-12  8.72760865E-10 -5.76096934E+00 -3.28298246E-12  8.72760865E-10
 -5.76096934E+00 -3.28298246E-12  8.72760865E-10 -5.76096934E+00 -3.28298246E-12
  8.72760865E-10 -5.76096934E+00 -3.28298246E-12  8.72760865E-10 -5.76096934E+00
Num ILSW                                   I              100
ILSW                                       I   N=         100
           0           0           0           0           2           0
           0           0           0           0           0          -1
           5           0           0           0           0           0
           0           0           1           0           0           0
           1           1           0           0           0           0
           0           0      100000           0          -1           0
           0           0           0           0           0           0
           0           0           0           1           1           0
           0 -2000000000           1           0           0           0
           0           0           4          52           0           0
           0           0           0           0           0           0
           0           0           0           0           4           1
           0           0           0           0           0           0
           0           0           0           0           0           0
           0           0           0           0           0           0
           0           0           0           0           0           0