 Entering Gaussian System, Link 0=g16
 Initial command:
 /opt/g16/l1.exe "/scratch/1499/Gau-452897.inp" -scrdir="/scratch/1499/"
 Entering Link 1 = /opt/g16/l1.exe PID=    452898.
  
 Copyright (c) 1988-2017, Gaussian, Inc.  All Rights Reserved.
  
 This is part of the Gaussian(R) 16 program.  It is based on
 the Gaussian(R) 09 system (copyright 2009, Gaussian, Inc.),
 the Gaussian(R) 03 system (copyright 2003, Gaussian, Inc.),
 the Gaussian(R) 98 system (copyright 1998, Gaussian, Inc.),
 the Gaussian(R) 94 system (copyright 1995, Gaussian, Inc.),
 the Gaussian 92(TM) system (copyright 1992, Gaussian, Inc.),
 the Gaussian 90(TM) system (copyright 1990, Gaussian, Inc.),
 the Gaussian 88(TM) system (copyright 1988, Gaussian, Inc.),
 the Gaussian 86(TM) system (copyright 1986, Carnegie Mellon
 University), and the Gaussian 82(TM) system (copyright 1983,
 Carnegie Mellon University). Gaussian is a federally registered
 trademark of Gaussian, Inc.
  
 This software contains proprietary and confidential information,
 including trade secrets, belonging to Gaussian, Inc.
  
 This software is provided under written license and may be
 used, copied, transmitted, or stored only in accord with that
 written license.
  
 The following legend is applicable only to US Government
 contracts under FAR:
  
                    RESTRICTED RIGHTS LEGEND
  
 Use, reproduction and disclosure by the US Government is
 subject to restrictions as set forth in subparagraphs (a)
 and (c) of the Commercial Computer Software - Restricted
 Rights clause in FAR 52.227-19.
  
 Gaussian, Inc.
 340 Quinnipiac St., Bldg. 40, Wallingford CT 06492
  
  
 ---------------------------------------------------------------
 Warning -- This program may not be used in any manner that
 competes with the business of Gaussian, Inc. or will provide
 assistance to any competitor of Gaussian, Inc.  The licensee
 of this program is prohibited from giving any competitor of
 Gaussian, Inc. access to this program.  By using this program,
 the user acknowledges that Gaussian, Inc. is engaged in the
 business of creating and licensing software in the field of
 computational chemistry and represents and warrants to the
 licensee that it is not a competitor of Gaussian, Inc. and that
 it will not use this program in any manner prohibited above.
 ---------------------------------------------------------------
  

 Cite this work as:
 Gaussian 16, Revision B.01,
 M. J. Frisch, G. W. Trucks, H. B. Schlegel, G. E. Scuseria, 
 M. A. Robb, J. R. Cheeseman, G. Scalmani, V. Barone, 
 G. A. Petersson, H. Nakatsuji, X. Li, M. Caricato, A. V. Marenich, 
 J. Bloino, B. G. Janesko, R. Gomperts, B. Mennucci, H. P. Hratchian, 
 J. V. Ortiz, A. F. Izmaylov, J. L. Sonnenberg, D. Williams-Young, 
 F. Ding, F. Lipparini, F. Egidi, J. Goings, B. Peng, A. Petrone, 
 T. Henderson, D. Ranasinghe, V. G. Zakrzewski, J. Gao, N. Rega, 
 G. Zheng, W. Liang, M. Hada, M. Ehara, K. Toyota, R. Fukuda, 
 J. Hasegawa, M. Ishida, T. Nakajima, Y. Honda, O. Kitao, H. Nakai, 
 T. Vreven, K. Throssell, J. A. Montgomery, Jr., J. E. Peralta, 
 F. Ogliaro, M. J. Bearpark, J. J. Heyd, E. N. Brothers, K. N. Kudin, 
 V. N. Staroverov, T. A. Keith, R. Kobayashi, J. Normand, 
 K. Raghavachari, A. P. Rendell, J. C. Burant, S. S. Iyengar, 
 J. Tomasi, M. Cossi, J. M. Millam, M. Klene, C. Adamo, R. Cammi, 
 J. W. Ochterski, R. L. Martin, K. Morokuma, O. Farkas, 
 J. B. Foresman, and D. J. Fox, Gaussian, Inc., Wallingford CT, 2016.
 
 ******************************************
 Gaussian 16:  ES64L-G16RevB.01 20-Dec-2017
                 4-Feb-2021 
 ******************************************
 %chk=H2Onodiffcc_N+1.chk
 %mem=32GB
 %nprocshared=16
 Will use up to   16 processors via shared memory.
 ------------------------------------------
 # UCCSD/6-31g(d) NoSymm 5D Density=Current
 ------------------------------------------
 1/30=1,38=1,172=1/1;
 2/12=2,15=1,17=6,18=5,40=1/2;
 3/5=1,6=6,7=1,8=1,11=2,25=1,30=1,71=1,116=2/1,2,3;
 4//1;
 5/5=2,38=5/2;
 8/6=4,9=120000,10=2/1,4;
 9/5=7,15=1/13;
 11/28=-8,31=1,32=3,42=3/11;
 10/5=6,13=10,31=1/2;
 6/7=2,8=2,9=2,10=2,22=-1/1;
 99/5=1,9=1/99;
 ----------------------------------------------------------------------
 Calculo de punto sencillo de H2O^-1 a nivel de teoria UCCSD/6-31G(d), 
 optimizada geometricamente a nivel de teoria B3LYP/6-311G(d,p)
 ----------------------------------------------------------------------
 Symbolic Z-matrix:
 Charge = -1 Multiplicity = 2
 O                     0.        0.        0.11867 
 H                     0.        0.75694  -0.47466 
 H                     0.       -0.75694  -0.47466 
 
                          Input orientation:                          
 ---------------------------------------------------------------------
 Center     Atomic      Atomic             Coordinates (Angstroms)
 Number     Number       Type             X           Y           Z
 ---------------------------------------------------------------------
      1          8           0        0.000000    0.000000    0.118665
      2          1           0        0.000000    0.756944   -0.474661
      3          1           0        0.000000   -0.756944   -0.474661
 ---------------------------------------------------------------------
                    Distance matrix (angstroms):
                    1          2          3
     1  O    0.000000
     2  H    0.961769   0.000000
     3  H    0.961769   1.513888   0.000000
 Symmetry turned off by external request.
 Stoichiometry    H2O(1-,2)
 Framework group  C2V[C2(O),SGV(H2)]
 Deg. of freedom     2
 Full point group                 C2V     NOp   4
 Rotational constants (GHZ):         801.9747679         437.5972249         283.1154099
 Standard basis: 6-31G(d) (5D, 7F)
    18 basis functions,    36 primitive gaussians,    19 cartesian basis functions
     6 alpha electrons        5 beta electrons
       nuclear repulsion energy         9.1529448664 Hartrees.
 NAtoms=    3 NActive=    3 NUniq=    3 SFac= 1.00D+00 NAtFMM=   60 NAOKFM=F Big=F
 Integral buffers will be    131072 words long.
 Raffenetti 2 integral format.
 Two-electron integral symmetry is turned off.
 One-electron integrals computed using PRISM.
 NBasis=    18 RedAO= T EigKep=  6.30D-02  NBF=    18
 NBsUse=    18 1.00D-06 EigRej= -1.00D+00 NBFU=    18
 ExpMin= 1.61D-01 ExpMax= 5.48D+03 ExpMxC= 8.25D+02 IAcc=3 IRadAn=         5 AccDes= 0.00D+00
 Harris functional with IExCor=  205 and IRadAn=       5 diagonalized for initial guess.
 HarFok:  IExCor=  205 AccDes= 0.00D+00 IRadAn=         5 IDoV= 1 UseB2=F ITyADJ=14
 ICtDFT=  3500011 ScaDFX=  1.000000  1.000000  1.000000  1.000000
 FoFCou: FMM=F IPFlag=           0 FMFlag=      100000 FMFlg1=           0
         NFxFlg=           0 DoJE=T BraDBF=F KetDBF=T FulRan=T
         wScrn=  0.000000 ICntrl=       500 IOpCl=  0 I1Cent=   200000004 NGrid=           0
         NMat0=    1 NMatS0=      1 NMatT0=    0 NMatD0=    1 NMtDS0=    0 NMtDT0=    0
 Symmetry not used in FoFCou.
 Initial guess <Sx>= 0.0000 <Sy>= 0.0000 <Sz>= 0.5000 <S**2>= 0.7500 S= 0.5000
 Keep R1 and R2 ints in memory in canonical form, NReq=3319220.
 Requested convergence on RMS density matrix=1.00D-08 within 128 cycles.
 Requested convergence on MAX density matrix=1.00D-06.
 Requested convergence on             energy=1.00D-06.
 No special actions if energy rises.
 SCF Done:  E(UHF) =  -75.8061344977     A.U. after   13 cycles
            NFock= 13  Conv=0.33D-08     -V/T= 1.9911
 <Sx>= 0.0000 <Sy>= 0.0000 <Sz>= 0.5000 <S**2>= 0.7573 S= 0.5036
 <L.S>=  0.00000000000    
 Annihilation of the first spin contaminant:
 S**2 before annihilation     0.7573,   after     0.7500
 ExpMin= 1.61D-01 ExpMax= 5.48D+03 ExpMxC= 8.25D+02 IAcc=3 IRadAn=         5 AccDes= 0.00D+00
 HarFok:  IExCor=  205 AccDes= 0.00D+00 IRadAn=         5 IDoV=-2 UseB2=F ITyADJ=14
 ICtDFT= 12500011 ScaDFX=  1.000000  1.000000  1.000000  1.000000
 Range of M.O.s used for correlation:     2    18
 NBasis=    18 NAE=     6 NBE=     5 NFC=     1 NFV=     0
 NROrb=     17 NOA=     5 NOB=     4 NVA=    12 NVB=    13
 Semi-Direct transformation.
 ModeAB=           2 MOrb=             5 LenV=    4294788698
 LASXX=         8875 LTotXX=        8875 LenRXX=        8875
 LTotAB=       11475 MaxLAS=       16150 LenRXY=       16150
 NonZer=       18445 LenScr=      785920 LnRSAI=           0
 LnScr1=           0 LExtra=           0 Total=       810945
 MaxDsk=          -1 SrtSym=           F ITran=            4
 JobTyp=1 Pass  1:  I=   1 to   5.
 (rs|ai) integrals will be sorted in core.
 ModeAB=           2 MOrb=             4 LenV=    4294788698
 LASXX=         7561 LTotXX=        7561 LenRXX=       12920
 LTotAB=        4836 MaxLAS=       12920 LenRXY=        4836
 NonZer=       15122 LenScr=      785920 LnRSAI=           0
 LnScr1=           0 LExtra=           0 Total=       803676
 MaxDsk=          -1 SrtSym=           F ITran=            4
 JobTyp=2 Pass  1:  I=   1 to   4.
 (rs|ai) integrals will be sorted in core.
 Spin components of T(2) and E(2):
     alpha-alpha T2 =       0.8324808610D-02 E2=     -0.2937527622D-01
     alpha-beta  T2 =       0.3850733922D-01 E2=     -0.1411022332D+00
     beta-beta   T2 =       0.6319554915D-02 E2=     -0.2402009314D-01
 ANorm=    0.1026231798D+01
 E2 =    -0.1944976026D+00 EUMP2 =    -0.76000632100271D+02
 (S**2,0)=  0.75726D+00           (S**2,1)=  0.75155D+00
 E(PUHF)=      -0.75807793107D+02        E(PMP2)=      -0.76001639880D+02
 Keep R2 and R3 ints in memory in canonical form, NReq=3321930.
 CIDS: In Core Option IDoMem=           1.
 Iterations=  50 Convergence= 0.100D-07
 Produce multiple copies of IABC intergrals
 Iteration Nr.   1
 **********************
 DD1Dir will call FoFMem   1 times, MxPair=        56
 NAB=    20 NAA=    10 NBB=     6.
 E(PMP3)=      -0.76006002167D+02
 MP4(R+Q)=  0.15071621D-02
 E3=       -0.48417640D-02        EUMP3=      -0.76005473864D+02
 E4(DQ)=   -0.19414467D-02        UMP4(DQ)=   -0.76007415311D+02
 E4(SDQ)=  -0.25840462D-02        UMP4(SDQ)=  -0.76008057910D+02
 DE(Corr)= -0.19783590     E(Corr)=     -76.003970401    
 NORM(A)=   0.10277781D+01
 Iteration Nr.   2
 **********************
 DD1Dir will call FoFMem   1 times, MxPair=        56
 NAB=    20 NAA=    10 NBB=     6.
 DE(Corr)= -0.20104664     E(CORR)=     -76.007181135     Delta=-3.21D-03
 NORM(A)=   0.10297539D+01
 Iteration Nr.   3
 **********************
 DD1Dir will call FoFMem   1 times, MxPair=        56
 NAB=    20 NAA=    10 NBB=     6.
 DE(Corr)= -0.20202498     E(CORR)=     -76.008159474     Delta=-9.78D-04
 NORM(A)=   0.10301388D+01
 Iteration Nr.   4
 **********************
 DD1Dir will call FoFMem   1 times, MxPair=        56
 NAB=    20 NAA=    10 NBB=     6.
 DE(Corr)= -0.20225641     E(CORR)=     -76.008390911     Delta=-2.31D-04
 NORM(A)=   0.10302406D+01
 Iteration Nr.   5
 **********************
 DD1Dir will call FoFMem   1 times, MxPair=        56
 NAB=    20 NAA=    10 NBB=     6.
 DE(Corr)= -0.20227698     E(CORR)=     -76.008411474     Delta=-2.06D-05
 NORM(A)=   0.10302623D+01
 Iteration Nr.   6
 **********************
 DD1Dir will call FoFMem   1 times, MxPair=        56
 NAB=    20 NAA=    10 NBB=     6.
 DE(Corr)= -0.20227838     E(CORR)=     -76.008412874     Delta=-1.40D-06
 NORM(A)=   0.10302658D+01
 Iteration Nr.   7
 **********************
 DD1Dir will call FoFMem   1 times, MxPair=        56
 NAB=    20 NAA=    10 NBB=     6.
 DE(Corr)= -0.20227807     E(CORR)=     -76.008412568     Delta= 3.06D-07
 NORM(A)=   0.10302665D+01
 Iteration Nr.   8
 **********************
 DD1Dir will call FoFMem   1 times, MxPair=        56
 NAB=    20 NAA=    10 NBB=     6.
 DE(Corr)= -0.20227820     E(CORR)=     -76.008412694     Delta=-1.26D-07
 NORM(A)=   0.10302665D+01
 Iteration Nr.   9
 **********************
 DD1Dir will call FoFMem   1 times, MxPair=        56
 NAB=    20 NAA=    10 NBB=     6.
 DE(Corr)= -0.20227820     E(CORR)=     -76.008412694     Delta=-3.14D-10
 NORM(A)=   0.10302664D+01
 Iteration Nr.  10
 **********************
 DD1Dir will call FoFMem   1 times, MxPair=        56
 NAB=    20 NAA=    10 NBB=     6.
 DE(Corr)= -0.20227815     E(CORR)=     -76.008412652     Delta= 4.17D-08
 NORM(A)=   0.10302664D+01
 Iteration Nr.  11
 **********************
 DD1Dir will call FoFMem   1 times, MxPair=        56
 NAB=    20 NAA=    10 NBB=     6.
 DE(Corr)= -0.20227813     E(CORR)=     -76.008412631     Delta= 2.10D-08
 NORM(A)=   0.10302664D+01
 Iteration Nr.  12
 **********************
 DD1Dir will call FoFMem   1 times, MxPair=        56
 NAB=    20 NAA=    10 NBB=     6.
 DE(Corr)= -0.20227813     E(CORR)=     -76.008412624     Delta= 7.14D-09
 NORM(A)=   0.10302664D+01
 Wavefunction amplitudes converged. E(Corr)=     -76.008412624    
 Largest amplitude= 5.36D-02

 Z-amplitude iterations

 Iteration Nr.   1
 **********************
 DD1Dir will call FoFMem   1 times, MxPair=        56
 NAB=    20 NAA=    10 NBB=     6.
 DE(Z)= -0.19970262     E(Z)=     -76.005837116     Delta= 2.58D-03
 NORM(A)=   0.10302665D+01
 Iteration Nr.   2
 **********************
 DD1Dir will call FoFMem   1 times, MxPair=        56
 NAB=    20 NAA=    10 NBB=     6.
 DE(Z)= -0.19970265     E(Z)=     -76.005837149     Delta=-3.33D-08
 NORM(A)=   0.10302669D+01
 Iteration Nr.   3
 **********************
 DD1Dir will call FoFMem   1 times, MxPair=        56
 NAB=    20 NAA=    10 NBB=     6.
 DE(Z)= -0.19970280     E(Z)=     -76.005837293     Delta=-1.44D-07
 NORM(A)=   0.10302670D+01
 Iteration Nr.   4
 **********************
 DD1Dir will call FoFMem   1 times, MxPair=        56
 NAB=    20 NAA=    10 NBB=     6.
 DE(Z)= -0.19970280     E(Z)=     -76.005837301     Delta=-8.33D-09
 NORM(A)=   0.10302696D+01
 Iteration Nr.   5
 **********************
 DD1Dir will call FoFMem   1 times, MxPair=        56
 NAB=    20 NAA=    10 NBB=     6.
 DE(Z)= -0.19970364     E(Z)=     -76.005838135     Delta=-8.34D-07
 NORM(A)=   0.10292036D+01
 Iteration Nr.   6
 **********************
 DD1Dir will call FoFMem   1 times, MxPair=        56
 NAB=    20 NAA=    10 NBB=     6.
 DE(Z)= -0.19935828     E(Z)=     -76.005492778     Delta= 3.45D-04
 NORM(A)=   0.10292033D+01
 Iteration Nr.   7
 **********************
 DD1Dir will call FoFMem   1 times, MxPair=        56
 NAB=    20 NAA=    10 NBB=     6.
 DE(Z)= -0.19935825     E(Z)=     -76.005492752     Delta= 2.57D-08
 NORM(A)=   0.10292033D+01
 Iteration Nr.   8
 **********************
 DD1Dir will call FoFMem   1 times, MxPair=        56
 NAB=    20 NAA=    10 NBB=     6.
 DE(Z)= -0.19935823     E(Z)=     -76.005492727     Delta= 2.51D-08
 NORM(A)=   0.10292033D+01
 Iteration Nr.   9
 **********************
 DD1Dir will call FoFMem   1 times, MxPair=        56
 NAB=    20 NAA=    10 NBB=     6.
 DE(Z)= -0.19935823     E(Z)=     -76.005492724     Delta= 2.56D-09
 NORM(A)=   0.10292033D+01
 Z-amplitudes converged.

 S**2, projected HF & approx projected MPn energies after annihilation of
 unwanted spin states (see manual for definitions):

 spins       (S**2,0) (S**2,1)    PUHF        PMP2        PMP3        PMP4
 annihilated
 s+1         0.74999  0.75001  -75.807793  -76.001640  -76.006002
 s+1,s+2     0.75000  0.75000  -75.807790  -76.001638  -76.006001
 s+1 to s+3  0.75000  0.75000  -75.807790  -76.001638  -76.006001
 s+1 to s+4  0.75000  0.75000  -75.807790  -76.001638  -76.006001

 Discarding MO integrals.
          Differentiating once with respect to electric field.
                with respect to dipole field.
          Electric field/nuclear overlap derivatives assumed to be zero.
 Keep R1 and R2 ints in memory in canonical form, NReq=3319677.
          There are     1 degrees of freedom in the 1st order CPHF.  IDoFFX=0 NUNeed=     1.
 LinEq1:  Iter=  0 NonCon=     1 RMS=2.78D-03 Max=1.25D-02 NDo=     1
 AX will form     1 AO Fock derivatives at one time.
 LinEq1:  Iter=  1 NonCon=     1 RMS=4.94D-04 Max=5.02D-03 NDo=     1
 LinEq1:  Iter=  2 NonCon=     1 RMS=1.95D-04 Max=1.01D-03 NDo=     1
 LinEq1:  Iter=  3 NonCon=     1 RMS=5.72D-05 Max=2.61D-04 NDo=     1
 LinEq1:  Iter=  4 NonCon=     1 RMS=9.02D-06 Max=3.93D-05 NDo=     1
 LinEq1:  Iter=  5 NonCon=     1 RMS=1.14D-06 Max=5.16D-06 NDo=     1
 LinEq1:  Iter=  6 NonCon=     1 RMS=1.59D-07 Max=5.54D-07 NDo=     1
 LinEq1:  Iter=  7 NonCon=     1 RMS=3.14D-08 Max=1.52D-07 NDo=     1
 LinEq1:  Iter=  8 NonCon=     1 RMS=3.43D-09 Max=1.56D-08 NDo=     1
 LinEq1:  Iter=  9 NonCon=     1 RMS=4.15D-10 Max=2.23D-09 NDo=     1
 LinEq1:  Iter= 10 NonCon=     0 RMS=4.65D-11 Max=2.32D-10 NDo=     1
 Linear equations converged to 1.000D-10 1.000D-09 after    10 iterations.
 End of Minotr F.D. properties file   721 does not exist.
 End of Minotr F.D. properties file   722 does not exist.
 End of Minotr F.D. properties file   788 does not exist.

 **********************************************************************

            Population analysis using the CC Density.

 **********************************************************************

 Alpha  occ. eigenvalues --  -20.20878  -1.02652  -0.36173  -0.26713  -0.17385
 Alpha  occ. eigenvalues --    0.19109
 Alpha virt. eigenvalues --    0.53790   1.33765   1.46833   1.46955   1.49179
 Alpha virt. eigenvalues --    1.69322   1.96443   2.34404   2.36403   2.38916
 Alpha virt. eigenvalues --    2.95108   3.26059
  Beta  occ. eigenvalues --  -20.19539  -0.98044  -0.35512  -0.23609  -0.15809
  Beta virt. eigenvalues --    0.53880   0.62247   1.34942   1.49129   1.50540
  Beta virt. eigenvalues --    1.52634   1.70139   1.99690   2.35306   2.36191
  Beta virt. eigenvalues --    2.39875   2.96029   3.27627
          Condensed to atoms (all electrons):
               1          2          3
     1  O   10.237677  -0.763040  -0.763040
     2  H   -0.763040   1.439558   0.467684
     3  H   -0.763040   0.467684   1.439558
          Atomic-Atomic Spin Densities.
               1          2          3
     1  O    1.865805  -1.010004  -1.010004
     2  H   -1.010004   1.092127   0.494979
     3  H   -1.010004   0.494979   1.092127
 Mulliken charges and spin densities:
               1          2
     1  O   -0.711596  -0.154203
     2  H   -0.144202   0.577102
     3  H   -0.144202   0.577102
 Sum of Mulliken charges =  -1.00000   1.00000
 Mulliken charges and spin densities with hydrogens summed into heavy atoms:
               1          2
     1  O   -1.000000   1.000000
 Electronic spatial extent (au):  <R**2>=             30.1266
 Charge=             -1.0000 electrons
 Dipole moment (field-independent basis, Debye):
    X=              0.0000    Y=             -0.0000    Z=              0.5967  Tot=              0.5967
 Quadrupole moment (field-independent basis, Debye-Ang):
   XX=            -10.0199   YY=            -11.2144   ZZ=            -11.0774
   XY=             -0.0000   XZ=             -0.0000   YZ=              0.0000
 Traceless Quadrupole moment (field-independent basis, Debye-Ang):
   XX=              0.7507   YY=             -0.4439   ZZ=             -0.3068
   XY=             -0.0000   XZ=             -0.0000   YZ=              0.0000
 Octapole moment (field-independent basis, Debye-Ang**2):
  XXX=              0.0000  YYY=             -0.0000  ZZZ=              4.4139  XYY=             -0.0000
  XXY=             -0.0000  XXZ=              1.1268  XZZ=              0.0000  YZZ=             -0.0000
  YYZ=              2.4628  XYZ=              0.0000
 Hexadecapole moment (field-independent basis, Debye-Ang**3):
 XXXX=             -9.6597 YYYY=            -25.1172 ZZZZ=            -17.8309 XXXY=             -0.0000
 XXXZ=             -0.0000 YYYX=             -0.0000 YYYZ=              0.0000 ZZZX=             -0.0000
 ZZZY=              0.0000 XXYY=             -5.5092 XXZZ=             -4.5066 YYZZ=             -7.3890
 XXYZ=              0.0000 YYXZ=             -0.0000 ZZXY=             -0.0000
 N-N= 9.152944866370D+00 E-N=-2.025848949122D+02  KE= 7.663233620311D+01
                          Isotropic Fermi Contact Couplings
        Atom                 a.u.       MegaHertz       Gauss      10(-4) cm-1
     1  O(17)              0.99818    -605.09251    -215.91205    -201.83714
     2  H(1)               0.00609      27.24053       9.72010       9.08646
     3  H(1)               0.00609      27.24053       9.72010       9.08646
 --------------------------------------------------------
       Center         ----  Spin Dipole Couplings  ----
                      3XX-RR        3YY-RR        3ZZ-RR
 --------------------------------------------------------
     1   Atom       -0.157471     -0.415182      0.572653
     2   Atom       -0.049047      0.074347     -0.025300
     3   Atom       -0.049047      0.074347     -0.025300
 --------------------------------------------------------
                        XY            XZ            YZ
 --------------------------------------------------------
     1   Atom        0.000000      0.000000      0.000000
     2   Atom        0.000000      0.000000     -0.043470
     3   Atom        0.000000      0.000000      0.043470
 --------------------------------------------------------


 ---------------------------------------------------------------------------------
              Anisotropic Spin Dipole Couplings in Principal Axis System
 ---------------------------------------------------------------------------------

       Atom             a.u.   MegaHertz   Gauss  10(-4) cm-1        Axes

              Baa    -0.4152    30.042    10.720    10.021 -0.0000  1.0000 -0.0000
     1 O(17)  Bbb    -0.1575    11.394     4.066     3.801  1.0000  0.0000  0.0000
              Bcc     0.5727   -41.437   -14.786   -13.822  0.0000  0.0000  1.0000
 
              Baa    -0.0490   -26.169    -9.338    -8.729  1.0000  0.0000  0.0000
     2 H(1)   Bbb    -0.0416   -22.195    -7.920    -7.403 -0.0000  0.3511  0.9364
              Bcc     0.0906    48.364    17.257    16.132 -0.0000  0.9364 -0.3511
 
              Baa    -0.0490   -26.169    -9.338    -8.729  1.0000  0.0000  0.0000
     3 H(1)   Bbb    -0.0416   -22.195    -7.920    -7.403  0.0000 -0.3511  0.9364
              Bcc     0.0906    48.364    17.257    16.132 -0.0000  0.9364  0.3511
 

 ---------------------------------------------------------------------------------

 1\1\GINC-N001\SP\UCCSD-FC\6-31G(d)\H2O1(1-,2)\JORGE\04-Feb-2021\0\\# U
 CCSD/6-31g(d) NoSymm 5D Density=Current\\Calculo de punto sencillo de 
 H2O^-1 a nivel de teoria UCCSD/6-31G(d), optimizada geometricamente a 
 nivel de teoria B3LYP/6-311G(d,p)\\-1,2\O,0,0.,0.,0.118665\H,0,0.,0.75
 6944,-0.474661\H,0,0.,-0.756944,-0.474661\\Version=ES64L-G16RevB.01\HF
 =-75.8061345\MP2=-76.0006321\MP3=-76.0054739\MP4D=-76.0089225\MP4DQ=-7
 6.0074153\PUHF=-75.8077931\PMP2-0=-76.0016399\PMP3-0=-76.0060022\MP4SD
 Q=-76.0080579\CCSD=-76.0084126\S2=0.757261\S2-1=0.751554\S2A=0.750018\
 RMSD=3.294e-09\Dipole=0.,0.,0.2347771\Quadrupole=0.5581149,-0.3299921,
 -0.2281228,0.,0.,0.\PG=C02V [C2(O1),SGV(H2)]\\@


 LAWS OF PROGRAMMING DEFINITION:  A WORKING PROGRAM
                                  IS ONE THAT HAS
                                  ONLY UNOBSERVED
                                  BUGS.
 Job cpu time:       0 days  0 hours  0 minutes 28.9 seconds.
 Elapsed time:       0 days  0 hours  0 minutes  2.1 seconds.
 File lengths (MBytes):  RWF=     13 Int=      0 D2E=      0 Chk=      1 Scr=      1
 Normal termination of Gaussian 16 at Thu Feb  4 21:03:01 2021.
