Calculo de punto sencillo de H2O^+1 a nivel de teoria UCISD/6-31G(d), op
SP        UCISD-FC                                                    6-31G(d)            
Number of atoms                            I                3
Info1-9                                    I   N=           9
          12          12           0           0           0         110
           1           5         301
Full Title                                 C   N=          11
Calculo de punto sencillo de H2O^+1 a nivel de teoria UCISD/
6-31G(d), optimizada geometricamente a nivel de teoria B3LYP
/6-311G(d,p)
Route                                      C   N=           4
# UCISD/6-31g(d) NoSymm 5D Density=Current      
Charge                                     I                1
Multiplicity                               I                2
Number of electrons                        I                9
Number of alpha electrons                  I                5
Number of beta electrons                   I                4
Number of basis functions                  I               18
Number of independent functions            I               18
Number of point charges in /Mol/           I                0
Number of translation vectors              I                0
Atomic numbers                             I   N=           3
           8           1           1
Nuclear charges                            R   N=           3
  8.00000000E+00  1.00000000E+00  1.00000000E+00
Current cartesian coordinates              R   N=           9
  0.00000000E+00  0.00000000E+00  2.24244351E-01  0.00000000E+00  1.43041685E+00
 -8.96979292E-01  0.00000000E+00 -1.43041685E+00 -8.96979292E-01
Number of symbols in /Mol/                 I                0
Force Field                                I                0
Atom Types                                 C   N=           3
                                    
Int Atom Types                             I   N=           3
           0           0           0
MM charges                                 R   N=           3
  0.00000000E+00  0.00000000E+00  0.00000000E+00
Integer atomic weights                     I   N=           3
          16           1           1
Real atomic weights                        R   N=           3
  1.59949146E+01  1.00782504E+00  1.00782504E+00
Atom fragment info                         I   N=           3
           0           0           0
Atom residue num                           I   N=           3
           0           0           0
Nuclear spins                              I   N=           3
           0           1           1
Nuclear ZEff                               R   N=           3
 -5.60000000E+00 -1.00000000E+00 -1.00000000E+00
Nuclear ZNuc                               R   N=           3
  8.00000000E+00  1.00000000E+00  1.00000000E+00
Nuclear QMom                               R   N=           3
  0.00000000E+00  0.00000000E+00  0.00000000E+00
Nuclear GFac                               R   N=           3
  0.00000000E+00  2.79284600E+00  2.79284600E+00
MicOpt                                     I   N=           3
          -1          -1          -1
Number of residues                         I                0
Number of secondary structures             I                0
Number of contracted shells                I                8
Number of primitive shells                 I               19
Pure/Cartesian d shells                    I                0
Pure/Cartesian f shells                    I                0
Highest angular momentum                   I                2
Largest degree of contraction              I                6
Shell types                                I   N=           8
           0          -1          -1          -2           0           0
           0           0
Number of primitives per shell             I   N=           8
           6           3           1           1           3           1
           3           1
Shell to atom map                          I   N=           8
           1           1           1           1           2           2
           3           3
Primitive exponents                        R   N=          19
  5.48467166E+03  8.25234946E+02  1.88046958E+02  5.29645000E+01  1.68975704E+01
  5.79963534E+00  1.55396162E+01  3.59993359E+00  1.01376175E+00  2.70005823E-01
  8.00000000E-01  1.87311370E+01  2.82539436E+00  6.40121692E-01  1.61277759E-01
  1.87311370E+01  2.82539436E+00  6.40121692E-01  1.61277759E-01
Contraction coefficients                   R   N=          19
  1.83107443E-03  1.39501722E-02  6.84450781E-02  2.32714336E-01  4.70192898E-01
  3.58520853E-01 -1.10777550E-01 -1.48026263E-01  1.13076702E+00  1.00000000E+00
  1.00000000E+00  3.34946043E-02  2.34726953E-01  8.13757326E-01  1.00000000E+00
  3.34946043E-02  2.34726953E-01  8.13757326E-01  1.00000000E+00
P(S=P) Contraction coefficients            R   N=          19
  0.00000000E+00  0.00000000E+00  0.00000000E+00  0.00000000E+00  0.00000000E+00
  0.00000000E+00  7.08742682E-02  3.39752839E-01  7.27158577E-01  1.00000000E+00
  0.00000000E+00  0.00000000E+00  0.00000000E+00  0.00000000E+00  0.00000000E+00
  0.00000000E+00  0.00000000E+00  0.00000000E+00  0.00000000E+00
Coordinates of each shell                  R   N=          24
  0.00000000E+00  0.00000000E+00  2.24244351E-01  0.00000000E+00  0.00000000E+00
  2.24244351E-01  0.00000000E+00  0.00000000E+00  2.24244351E-01  0.00000000E+00
  0.00000000E+00  2.24244351E-01  0.00000000E+00  1.43041685E+00 -8.96979292E-01
  0.00000000E+00  1.43041685E+00 -8.96979292E-01  0.00000000E+00 -1.43041685E+00
 -8.96979292E-01  0.00000000E+00 -1.43041685E+00 -8.96979292E-01
Num ILSW                                   I              100
ILSW                                       I   N=         100
           1           0           0           0           2           0
           0           0           0           0           0          -1
           5           0           0           0           0           0
           0           0           1           0           0           0
           1           1           0           0           0           0
           0           0      100000           0          -1           0
           0           0           0           0           0           0
           0           0           0           1           1           0
           0 -2000000000           1           0           0           0
           0           0           4          52           0           0
           0           0           0           0           0           0
           0           0           0           0           4           1
           0           0           0           0           0           0
           0           0           0           0           0           0
           0           0           0           0           0           0
           0           0           0           0           0           0
           0           0           0           0
Num RLSW                                   I               52
RLSW                                       R   N=          52
  1.00000000E+00  1.00000000E+00  1.00000000E+00  1.00000000E+00  1.00000000E+00
  0.00000000E+00  0.00000000E+00  1.00000000E+00  0.00000000E+00  0.00000000E+00
  0.00000000E+00  0.00000000E+00  1.00000000E+00  0.00000000E+00  0.00000000E+00
  0.00000000E+00  0.00000000E+00  1.00000000E+00  0.00000000E+00  0.00000000E+00
  0.00000000E+00  0.00000000E+00  1.00000000E+00  0.00000000E+00  0.00000000E+00
  0.00000000E+00  0.00000000E+00  1.00000000E+00  0.00000000E+00  0.00000000E+00
  0.00000000E+00  0.00000000E+00  1.00000000E+00  0.00000000E+00  0.00000000E+00
  0.00000000E+00  0.00000000E+00  0.00000000E+00  1.00000000E+00  1.00000000E+00
  0.00000000E+00  1.00000000E+00  0.00000000E+00  0.00000000E+00  0.00000000E+00
  0.00000000E+00  0.00000000E+00  0.00000000E+00  0.00000000E+00  0.00000000E+00
  0.00000000E+00  0.00000000E+00
MxBond                                     I                2
NBond                                      I   N=           3
           2           1           1
IBond                                      I   N=           6
           2           3           1           0           1           0
RBond                                      R   N=           6
  1.00000000E+00  1.00000000E+00  1.00000000E+00  0.00000000E+00  1.00000000E+00
  0.00000000E+00
Virial Ratio                               R      1.999040425605710E+00
SCF Energy                                 R     -7.561068185492631E+01
MP2 Energy                                 R     -7.574635519731885E+01
MP3 Energy                                 R     -7.575953823046663E+01
Cluster Energy                             R     -7.575872917894043E+01
Total Energy                               R     -7.575872918912918E+01
PUHF Energy                                R     -7.561377656657197E+01
PMP2-0 Energy                              R     -7.574818913562774E+01
PMP3-0 Energy                              R     -7.576057541429560E+01
Post-SCF wavefunction norm                 R      1.021276064593293E+00
S**2                                       R      7.566775992991017E-01
S**2 after annihilation                    R      7.500264298880457E-01
S**2 corrected to first order              R      7.512238338359600E-01
RMS Density                                R      7.009147658920787E-09
Job Status                                 I                1
Nuclear derivative order                   I                0
External E-field                           R   N=          35
  0.00000000E+00  0.00000000E+00  0.00000000E+00  0.00000000E+00  0.00000000E+00
  0.00000000E+00  0.00000000E+00  0.00000000E+00  0.00000000E+00  0.00000000E+00
  0.00000000E+00  0.00000000E+00  0.00000000E+00  0.00000000E+00  0.00000000E+00
  0.00000000E+00  0.00000000E+00  0.00000000E+00  0.00000000E+00  0.00000000E+00
  0.00000000E+00  0.00000000E+00  0.00000000E+00  0.00000000E+00  0.00000000E+00
  0.00000000E+00  0.00000000E+00  0.00000000E+00  0.00000000E+00  0.00000000E+00
  0.00000000E+00  0.00000000E+00  0.00000000E+00  0.00000000E+00  0.00000000E+00
IOpCl                                      I                1
IROHF                                      I                0
Alpha Orbital Energies                     R   N=          18
 -2.11387832E+01 -1.91492949E+00 -1.21955395E+00 -1.13391115E+00 -1.10054015E+00
 -1.28443428E-01 -4.02306762E-02  6.11959159E-01  6.45108719E-01  7.07854386E-01
  7.48902038E-01  9.18640287E-01  1.17665564E+00  1.49589152E+00  1.52443750E+00
  1.53120540E+00  2.11368021E+00  2.46404816E+00
Beta Orbital Energies                      R   N=          18
 -2.10936985E+01 -1.75733232E+00 -1.18065618E+00 -1.04774717E+00 -3.16118509E-01
 -1.13073697E-01 -3.10331239E-02  6.08051605E-01  7.38038054E-01  7.78831865E-01
  8.41006125E-01  9.44425675E-01  1.22796985E+00  1.55668033E+00  1.59551076E+00
  1.62920811E+00  2.18931800E+00  2.47762236E+00
Alpha MO coefficients                      R   N=         324
  9.95532609E-01  2.33714961E-02 -1.01424324E-16  8.02736415E-16 -1.73655270E-03
 -8.75817293E-03 -9.16631835E-17 -5.21678739E-16  1.98034242E-03 -1.31107392E-04
 -3.11925706E-18 -5.87390122E-17  4.76272294E-04  7.79083933E-17  3.63319216E-04
  2.03302262E-03  3.63319216E-04  2.03302262E-03 -2.23829592E-01  5.30856634E-01
 -5.33941932E-16 -1.97792245E-16 -1.03843241E-01  4.87814275E-01 -1.84624907E-16
 -2.17411797E-15 -6.65036344E-02 -2.05241003E-03  5.31153368E-17  2.68349372E-16
 -1.79165493E-03 -6.09048180E-17  1.11502454E-01 -3.54799672E-02  1.11502454E-01
 -3.54799672E-02 -1.47420544E-16  4.92734038E-17 -5.15299353E-15  5.92848066E-01
  1.67485771E-15  1.30331142E-16 -2.74488808E-15  3.25664702E-01  1.03698238E-15
 -5.04915536E-17  2.40627658E-16 -5.87834406E-02  2.18866019E-16 -1.21516385E-16
  2.04119286E-01  1.73462946E-02 -2.04119286E-01 -1.73462946E-02  8.07540286E-16
 -2.42938724E-15  7.30574662E-01  4.00362006E-15 -8.18515160E-15 -3.05719680E-15
  4.07631121E-01  2.24548360E-15 -2.81477836E-15  3.82150626E-16 -3.72401471E-02
 -2.62135887E-16  5.62740654E-16  6.29122175E-17  3.34098645E-15  1.55421873E-15
  1.00854110E-15  1.04656533E-15 -6.29358589E-02  1.80876519E-01  8.27593802E-15
 -8.62481694E-16  6.35648055E-01  1.77461744E-01  4.95532831E-15 -1.04323480E-15
  3.71250596E-01 -4.43375430E-02 -3.59625111E-16  4.29185341E-17  1.43061449E-02
  1.16037122E-16 -1.25832232E-01 -2.51371889E-02 -1.25832232E-01 -2.51371889E-02
 -8.36653939E-02  1.72744114E-01 -8.11102167E-16 -6.81609606E-15 -2.35769868E-01
  1.04117185E+00  1.85108320E-15 -2.21631123E-14 -3.97290241E-01  8.22069845E-03
 -1.34466294E-16  9.19973168E-16  8.01451128E-03  5.94091764E-17 -1.14810418E-01
 -9.26337672E-01 -1.14810418E-01 -9.26337672E-01  2.09449283E-15 -3.16391038E-15
  1.78559984E-17 -3.63061675E-01  6.44402544E-15 -2.83270686E-14 -5.08814597E-18
 -7.04175579E-01  8.67345393E-15 -1.27868777E-16 -1.16176122E-16  1.67407519E-03
 -8.79505482E-16  3.66874836E-16  1.41670524E-01  1.27555832E+00 -1.41670524E-01
 -1.27555832E+00 -1.71921436E-16  7.91387871E-16  3.82842460E-15 -9.99900976E-02
 -7.08546761E-16 -4.96034402E-17 -4.45611434E-15 -5.20219127E-01 -1.82890293E-15
  3.41041240E-17  3.86010206E-16 -2.24982751E-01 -8.18026991E-17  5.85780843E-16
  8.16030823E-01 -5.98607418E-01 -8.16030823E-01  5.98607418E-01  4.80476091E-16
 -9.67071283E-16 -8.95704536E-01  2.94652378E-16  1.48732587E-14  5.06494691E-16
  1.08077212E+00 -3.57179076E-15 -1.30034173E-14 -1.37579450E-16 -2.53320000E-02
 -1.18346915E-15 -2.52823378E-15  1.21626246E-15  1.27024866E-14 -8.57469671E-15
  5.92633047E-15 -5.23710219E-15  2.72017134E-02 -9.70815991E-02  1.64487220E-14
  2.70283581E-16  6.84882766E-01  1.52812203E-01 -1.91261148E-14 -2.88105830E-15
 -4.25043341E-01  1.37309610E-02  4.00497622E-16 -4.24978000E-16 -2.08152542E-01
 -2.86919674E-16  6.85745956E-01 -5.48621753E-01  6.85745956E-01 -5.48621753E-01
  6.05744932E-02 -4.39550118E-01 -5.11927501E-15 -8.80361789E-15 -6.16141391E-01
  1.62756991E-01  5.39311973E-15  1.07426256E-14  1.10808711E+00 -2.50492207E-02
  4.34504523E-17 -8.14725698E-16 -1.75619053E-01  1.14486513E-16  5.20309710E-01
 -1.28824237E-01  5.20309710E-01 -1.28824237E-01 -1.27640343E-15  1.62667019E-14
 -1.10423663E-15 -9.77669653E-01  3.56200321E-15 -1.92560198E-14  1.17363628E-15
  1.62615285E+00 -4.24549370E-15 -5.42882626E-16 -7.50422674E-16 -7.58831941E-03
  3.39738389E-16  5.01706339E-15  7.68792529E-02 -9.99002771E-01 -7.68792529E-02
  9.99002771E-01  5.86141589E-02 -1.58151860E+00  5.87747141E-16 -7.65893677E-15
  2.31776338E-01  2.53814098E+00 -1.34680255E-15  1.12573724E-14 -7.16009893E-01
  1.97329555E-02  5.11230802E-16  2.93569104E-16  2.69783226E-01 -5.52899307E-15
 -1.77237844E-01 -6.85187880E-01 -1.77237844E-01 -6.85187880E-01  7.28273974E-17
 -4.34423505E-15  1.98570707E-15  5.81264072E-15  1.33113672E-15  5.42185914E-15
 -8.61035232E-16 -8.85264219E-15  1.93946318E-15  5.68952345E-14  3.45462110E-14
 -7.15946950E-18  7.68203525E-15  1.00000000E+00  8.80708303E-17  4.94714140E-15
  3.07585015E-15 -8.07730769E-15 -2.58620048E-03  6.47069052E-02  3.87547157E-16
 -4.96897846E-16 -3.52241332E-03 -1.13007219E-01  1.54807046E-14  2.47661799E-15
  9.64015123E-02  9.92653137E-01  3.51225621E-13 -5.53119693E-16  9.26895960E-02
 -5.80028465E-14  2.91390957E-02  2.98406617E-02  2.91390957E-02  2.98406617E-02
  8.85557057E-16 -2.14976063E-14  4.52130875E-03 -1.17255194E-15  9.10945063E-16
  3.72671600E-14  4.26015935E-02  1.12920587E-15 -3.30740602E-14 -3.50702759E-13
  9.98985216E-01  1.45391224E-15 -3.21428936E-14 -3.49508798E-14 -1.00568678E-14
 -9.20888757E-15 -9.87866029E-15 -9.97914343E-15 -2.49434948E-02 -5.85649680E-01
 -5.93323041E-16  6.08040464E-16  5.31649317E-02  1.44787626E+00 -1.55052385E-17
 -3.30368986E-17 -7.76926599E-01  1.27665148E-01  7.85456686E-16  3.05053427E-15
 -1.06067348E+00  6.59994603E-16 -8.87433963E-01 -1.31077905E-01 -8.87433963E-01
 -1.31077905E-01  2.69929271E-16  1.52794479E-15 -4.70616039E-16  2.84083684E-02
 -2.80844233E-16 -5.28445713E-15  5.77002501E-16 -8.63570551E-01  2.80297217E-15
  3.04875969E-16 -1.44929180E-15  1.27494133E+00  2.25353709E-15  3.38473456E-16
  9.59837773E-01 -5.25785791E-02 -9.59837773E-01  5.25785791E-02
Beta MO coefficients                       R   N=         324
  9.96141985E-01  2.03162273E-02 -9.06335915E-17  2.08355855E-17 -1.60189219E-03
 -7.57192971E-03 -8.87962577E-17  8.44670095E-16  1.62947319E-03  4.07051306E-04
  6.87737329E-19 -5.96840564E-16 -5.13819448E-04  1.69382441E-19  1.17042981E-04
  1.77179477E-03  1.17042981E-04  1.77179477E-03 -2.13414236E-01  4.86128033E-01
  6.10650151E-16  4.75614574E-16 -1.13745898E-01  4.83847659E-01 -6.14913886E-16
 -2.23253888E-15 -7.11392290E-02  1.91851293E-02  6.33212796E-17  2.88671495E-16
 -3.79154534E-02 -1.11213740E-16  1.37355140E-01 -2.52755570E-02  1.37355140E-01
 -2.52755570E-02 -4.33371431E-18 -1.73939592E-16 -6.86795844E-16  5.60277756E-01
 -6.19282818E-17  1.56645816E-15 -3.83868933E-16  3.19249830E-01 -1.03849185E-15
  7.11933922E-17  4.51434656E-16 -5.70239114E-02 -7.13996427E-16  1.03553775E-16
  2.26382691E-01  3.45594890E-02 -2.26382691E-01 -3.45594890E-02 -7.23472502E-02
  1.95302563E-01  6.17022865E-16 -1.13479820E-17  6.10833873E-01  2.19783890E-01
  7.89944250E-16 -2.37732092E-16  3.81755164E-01 -3.35144119E-02  7.82547926E-17
  8.98342198E-17 -1.21905860E-03  8.96091488E-17 -1.28661570E-01 -3.17571053E-02
 -1.28661570E-01 -3.17571053E-02  4.75646824E-17  4.08625631E-16  5.35457737E-01
  8.91925580E-17 -7.19671104E-16 -6.69282258E-16  6.16903831E-01  4.69302760E-16
 -2.68363772E-16  1.94250392E-16 -3.72035241E-02  1.42133627E-17 -6.89629835E-17
 -4.37039205E-16  6.08760124E-16 -2.27624700E-16  2.47897011E-16 -4.94572288E-16
 -8.88461181E-02  1.61674098E-01 -1.94543903E-16 -1.73215473E-14 -2.34264410E-01
  1.10075585E+00 -6.21276588E-17 -4.51385695E-14 -4.16833236E-01  1.55888680E-02
  2.38393143E-17  1.28107507E-15 -6.49808678E-03 -3.48248883E-17 -1.01873234E-01
 -9.46978288E-01 -1.01873234E-01 -9.46978288E-01  4.51207220E-15 -1.05797790E-14
 -1.00529535E-16 -3.67687632E-01  1.36533221E-14 -5.27074190E-14 -2.59416991E-16
 -7.40177739E-01  1.68515647E-14 -5.42949925E-16  1.53818998E-17  4.44577256E-03
 -4.94888944E-16  4.39805265E-16  1.32158705E-01  1.29083703E+00 -1.32158705E-01
 -1.29083703E+00  5.99350770E-16  2.49508205E-16  6.96543914E-16 -1.05416044E-01
  1.25598408E-15 -4.13428221E-15 -7.05693850E-16 -5.34561722E-01  1.66424264E-15
 -1.25067925E-16  3.19388797E-16 -2.20053844E-01 -9.81525307E-16 -4.61469822E-16
  8.15738317E-01 -5.93914275E-01 -8.15738317E-01  5.93914275E-01  2.75269422E-02
 -6.33621941E-02  2.09723046E-15 -1.56649152E-15  7.74655603E-01  9.79888193E-02
 -1.87885040E-15  3.81018098E-15 -5.41066324E-01 -7.77601154E-03 -1.24652279E-15
  9.77425072E-16 -1.55113659E-01  4.34260863E-16  6.28958423E-01 -5.15681756E-01
  6.28958423E-01 -5.15681756E-01  7.24599238E-02 -4.62300460E-01 -9.79927628E-15
 -1.51604951E-14 -5.28258591E-01  1.27153329E-01  1.05256074E-14  2.16565346E-14
  1.06125393E+00 -5.23740714E-02  6.20869039E-16  6.47660225E-17 -1.67719834E-01
  6.71652353E-16  6.27572562E-01 -1.87145750E-01  6.27572562E-01 -1.87145750E-01
  6.92780224E-16 -2.73958259E-15  1.02436336E+00 -3.57843431E-15 -7.34042729E-15
 -2.31153742E-15 -9.76714096E-01  6.60582059E-15  1.28201852E-14 -1.77593820E-16
  1.61966696E-02  4.38540410E-16 -2.17275091E-15  1.12657401E-15  5.39691156E-15
 -3.61240278E-15  5.98487854E-15  3.19529058E-15 -1.78412489E-15  2.05059388E-14
 -4.56873704E-15 -9.94478947E-01  4.06501585E-15 -2.05214509E-14  3.78591336E-15
  1.60671308E+00 -8.85926648E-15  1.27736356E-15  4.19321429E-16 -6.88146684E-03
  3.11136251E-15 -2.30890735E-15  7.82469985E-02 -9.81670690E-01 -7.82469985E-02
  9.81670690E-01  5.80076600E-02 -1.58217296E+00  1.90983473E-15 -7.04573519E-15
  2.29791810E-01  2.53225823E+00 -2.58761543E-15  1.23489822E-14 -7.13189533E-01
  6.09269466E-02 -1.18175404E-15  6.93181296E-18  2.65983702E-01  2.15064666E-16
 -1.94833639E-01 -6.67920919E-01 -1.94833639E-01 -6.67920919E-01  2.84225858E-03
  1.37768225E-01 -1.06425596E-15  1.23613179E-15 -1.60052249E-02 -3.04330160E-01
  1.23839925E-15 -9.60872732E-16  1.83063858E-01  9.81539705E-01  1.99175879E-15
 -5.53258671E-16  1.34468020E-01  3.44998509E-14  1.13555216E-01  5.42569357E-02
  1.13555216E-01  5.42569357E-02 -2.44104204E-16 -4.47912777E-15 -9.22110893E-16
 -3.46973752E-15  8.75112171E-16  1.13740546E-14  1.58760233E-15  4.79308254E-15
 -8.73401427E-15 -3.38461366E-14  9.71810222E-15 -4.10253061E-16 -5.89104532E-15
  1.00000000E+00 -5.50428599E-15 -4.51528724E-15 -6.76983014E-15  1.96898941E-15
  2.77865789E-18 -2.91255485E-15  3.33238433E-03  6.66294095E-16  2.40622393E-15
  6.14932532E-15  3.88024680E-02 -2.31325003E-15 -4.36508374E-15 -1.60001797E-15
  9.99176444E-01  1.42221458E-15 -1.95474478E-15 -9.81413759E-15 -1.09820299E-15
  4.81635125E-16 -2.28368953E-15 -3.74034602E-15 -1.63089404E-02 -5.95744849E-01
 -6.90227350E-16  1.96317105E-16  5.02862470E-02  1.38918527E+00  5.76871842E-17
  3.66326565E-15 -7.40591444E-01  1.82294817E-01 -2.00230761E-15  2.54480296E-15
 -1.06693193E+00 -1.54263865E-15 -8.46244554E-01 -1.29229980E-01 -8.46244554E-01
 -1.29229980E-01  2.31530000E-16  1.38663044E-15 -5.14113628E-16  2.68204872E-02
 -3.79151084E-16 -5.19961897E-15  6.05189126E-16 -8.63486636E-01  2.66626762E-15
  2.76802908E-16 -1.56422653E-15  1.27587851E+00  2.03620600E-15  3.11456308E-16
  9.56333548E-01 -5.08499091E-02 -9.56333548E-01  5.08499091E-02
Orthonormal basis                          R   N=         324
  5.29754065E-02  1.89461880E-01  1.49362543E-17 -3.35486742E-18 -6.69700749E-02
  2.51236217E-01  1.35518565E-18 -9.25816485E-18 -1.20849292E-01  4.87833645E-03
  2.47099600E-41  2.23599194E-18 -3.69260726E-02  0.00000000E+00  1.75470646E-01
  2.29903206E-01  1.75470646E-01  2.29903206E-01 -1.16325562E-17 -6.58901910E-17
 -1.87005569E-16  2.68325350E-01 -1.28533227E-16  4.85780520E-17 -1.74669666E-16
  3.84743925E-01 -7.19499310E-18  2.30620600E-18  0.00000000E+00 -1.46940550E-01
  2.48291752E-17  8.51823152E-27  2.63043966E-01  1.64872903E-01 -2.63043966E-01
 -1.64872903E-01  1.60443675E-01  2.83112581E-01 -5.21363531E-16 -2.23330231E-17
  4.34919400E-01  2.50156487E-01 -4.85128078E-16  3.22707207E-17  4.69165754E-01
 -1.01789698E-02 -3.01473852E-34 -2.50624074E-17  7.70486787E-02 -9.20025184E-39
 -1.19353201E-01  1.22196686E-02 -1.19353201E-01  1.22196686E-02  2.94501229E-16
  1.51477136E-16  5.77057836E-01  8.15514239E-17  5.40596917E-16  3.04196926E-16
  5.77057836E-01  1.07455254E-16  4.46154812E-16  3.08902191E-16  0.00000000E+00
 -1.55000667E-16 -2.15202737E-18  8.64061504E-23  4.81626948E-17  1.10232176E-16
 -2.23647552E-16 -9.36255094E-17  2.23952472E-16  9.04984783E-17  7.04320615E-17
  3.71794071E-01 -2.37805857E-16  2.05025886E-16  1.24632135E-16  2.61844932E-01
 -1.22835269E-16 -1.75076115E-17  2.07075254E-16  7.71569925E-01  8.77193847E-16
 -4.04443856E-19 -1.81983420E-01  2.61085026E-02  1.81983420E-01 -2.61085026E-02
  3.15893995E-01  1.46468835E-01 -1.33065838E-17 -3.17719327E-16 -2.83268783E-01
  4.15160948E-02  1.48495688E-17 -4.72993607E-16 -1.70028837E-01 -1.04236456E-01
 -3.78195859E-31 -8.60443103E-16  7.89007274E-01  2.95465515E-33 -1.63295414E-01
 -1.62743978E-02 -1.63295414E-01 -1.62743978E-02 -5.86699879E-16 -1.94856467E-16
 -4.96839318E-16 -1.58878029E-16  2.02736103E-16  1.13878702E-17 -5.09699174E-16
  3.29357135E-17  1.41841441E-16  9.91385951E-01 -2.99760217E-15 -8.16508468E-17
  1.30972884E-01  3.81639165E-17  7.24183019E-17  1.89633706E-16  5.75448936E-17
  1.32032596E-16 -1.48814957E-19 -2.23316938E-17 -8.25726340E-17  4.83151405E-16
  3.46729218E-18  4.78926249E-17  8.46201253E-17 -4.25712544E-16 -1.80188971E-17
  2.74667063E-15  9.99745759E-01 -4.27985915E-16  3.57696225E-16 -2.25481319E-02
 -8.32034355E-17  1.67666044E-17  6.58153076E-17 -4.66861543E-17 -1.95880234E-32
 -2.71647456E-30  1.29016799E-17  3.37083419E-17  4.56880336E-31  5.86821241E-30
 -1.28804234E-17 -2.19481171E-17 -2.14681081E-30  2.31527533E-17  2.25481319E-02
 -4.48733220E-17  3.05873092E-18  9.99745759E-01 -5.83177734E-17  7.12251629E-17
  5.83177734E-17 -7.12251629E-17  8.46564390E-01  1.09580183E-01 -8.39513415E-17
 -3.49265403E-17 -1.82140862E-01 -9.90599974E-02 -3.37657817E-16  2.06138853E-17
 -4.64414193E-02  5.58675926E-02 -2.48545899E-30  1.60792325E-16 -4.22884072E-01
  3.26216493E-32  1.53745747E-02 -1.73583623E-01  1.53745747E-02 -1.73583623E-01
 -4.03283660E-15  6.24809024E-15 -2.69242281E-16  9.77582480E-01 -6.67087868E-15
  1.96325667E-15  2.83024204E-16 -3.67265104E-01  2.68178536E-15  3.45469975E-17
 -5.83964829E-16 -3.88658620E-01 -2.32039806E-15 -3.38530335E-17 -1.35912137E-01
 -3.23325175E-01  1.35912137E-01  3.23325175E-01  4.25677672E-01 -6.64752309E-01
 -3.39857333E-16  9.50397551E-15  7.07377863E-01 -2.12328485E-01  2.64608812E-16
 -3.52107704E-15 -2.78763464E-01 -2.84277950E-02  1.97171531E-24 -3.44152432E-15
  2.15181309E-01 -4.44702104E-26  1.17365301E-01  2.98648100E-01  1.17365301E-01
  2.98648100E-01  1.27954153E-16 -6.53893567E-16  1.00152416E+00  5.76054382E-16
 -1.26080264E-16 -6.04946335E-17 -1.00152416E+00 -3.92136433E-16 -8.65094581E-17
  1.19919685E-16  2.45700865E-17 -2.02745382E-17 -2.13688837E-16  6.28994214E-16
 -5.00925053E-16  3.85202750E-16 -6.97485745E-16  1.09282124E-15  1.73928222E-01
 -7.88921240E-01 -4.90638727E-16 -4.48015719E-18 -7.18841665E-01  2.21751494E-01
  8.10023572E-16 -6.61987595E-18  8.86674979E-01  4.73234577E-03  7.18261134E-23
 -4.57655025E-16 -3.58210110E-02 -1.61995663E-24 -1.23816322E-01  4.03787724E-01
 -1.23816322E-01  4.03787724E-01  6.37476142E-02 -2.71729300E-01  1.22817184E-15
  3.26376588E-16 -2.57814251E-02  1.58874362E-01 -8.08415174E-16 -8.89079203E-18
  5.75308467E-01 -7.21345329E-02 -2.99992030E-20 -7.24163459E-16  5.46015025E-01
  6.76598005E-22  1.08671698E+00 -6.19544299E-01  1.08671698E+00 -6.19544299E-01
  9.56718679E-17 -4.67396003E-16 -4.75799010E-16 -3.73804382E-02 -2.18816538E-16
  6.39436457E-17  7.37061726E-16 -7.08252621E-01  5.72685028E-16  2.60231494E-16
 -6.41249393E-16  8.80666428E-01  4.77888394E-16 -1.90265913E-16  1.21933106E+00
 -6.96123288E-01 -1.21933106E+00  6.96123288E-01  1.54189416E-16  3.31394088E-16
  1.98067978E-17 -5.31630969E-01  3.93897894E-16 -2.11789738E-15  9.70684440E-17
  1.84650475E+00  7.02189415E-16 -1.14781937E-16  7.77184746E-17 -3.68873890E-01
  4.79775628E-16  1.22530744E-16 -2.17462769E-01 -1.53930513E+00  2.17462769E-01
  1.53930513E+00 -9.70852153E-03 -1.45199034E+00 -3.74082030E-16 -3.00602965E-16
  2.25473471E-01  3.11415411E+00 -4.53591368E-16  1.46028970E-15 -1.17197327E+00
  4.36782995E-02 -2.44053114E-16 -4.36685269E-16 -3.30618455E-01  5.50434124E-18
 -5.65882864E-01 -9.72450955E-01 -5.65882864E-01 -9.72450955E-01
Total SCF Density                          R   N=         171
  2.08822440E+00 -2.04576355E-01  5.89947612E-01 -1.77589282E-16 -1.48223990E-16
  5.33739336E-01  7.27950269E-16 -8.10671153E-17 -5.14795313E-16  6.65379993E-01
 -4.00035301E-02  1.23777155E-01 -3.56073370E-16  3.68085381E-16  8.00893599E-01
 -2.55778480E-01  5.68835849E-01 -5.92664730E-16  9.25817468E-16  1.41390093E-01
  5.52002992E-01 -4.69910593E-17 -3.40595721E-16  2.97804969E-01 -2.10374679E-16
  3.85264381E-16 -5.79322486E-16  1.66163131E-01  1.31861360E-15 -2.50908653E-15
 -2.56914133E-16  3.71938267E-01  1.96588902E-16 -1.83744952E-15 -1.01134249E-16
  2.07977952E-01 -1.73216238E-02  7.19009964E-02  1.24331220E-15 -3.10657183E-16
  4.84165403E-01  8.28947589E-02  1.04953914E-15 -1.68135677E-16  2.93054110E-01
  1.85506650E-03 -6.32297169E-03 -9.56366773E-17  5.80088086E-17 -5.06243362E-02
 -6.95459442E-03 -1.01847514E-16  2.25499353E-17 -3.04825580E-02  3.46149798E-03
 -4.09238076E-17  9.96263101E-17 -2.72067079E-02  2.46489038E-16  1.11308036E-16
  1.23800286E-16 -1.51802429E-02  1.38862232E-16 -6.85615224E-18  1.97386362E-19
  1.38682855E-03 -7.74973045E-16  3.01618048E-16  1.50564637E-16 -6.67988782E-02
 -7.24110278E-17  2.05984991E-16  7.63889277E-17 -3.73485657E-02  9.01874832E-18
 -1.25310844E-18 -3.01255125E-17  6.70721936E-03  7.64285641E-03 -1.70326240E-02
  5.06570470E-16 -2.99914125E-16  1.28478054E-02 -1.69487149E-02  3.22966752E-16
 -8.34406359E-17  7.66231650E-03 -1.31745054E-03 -2.86946492E-17  1.72064494E-17
  1.64743436E-03  1.01310099E-16 -4.60822794E-17  4.59620720E-17 -1.40218772E-17
  1.47334172E-16 -4.39175678E-17  2.56449778E-17 -6.51407224E-18  8.94042189E-17
 -1.01667926E-17 -2.34286023E-18  1.23810991E-18  5.91366346E-18  7.30896160E-32
 -3.65651331E-02  7.80868404E-02  1.37061755E-16  2.47848910E-01 -1.85779037E-01
  7.02392360E-02 -1.15562722E-16  1.38747082E-01 -1.13018257E-01  1.22974362E-02
  7.66978979E-17 -2.49080604E-02 -7.05087157E-03 -4.95300095E-17  1.56600733E-01
  2.10040996E-02 -4.17873931E-02  7.97866425E-16  2.96466302E-02 -2.88237438E-02
 -4.10089645E-02  4.44767700E-16  1.66821868E-02 -1.72910917E-02  1.76720118E-03
 -3.50393001E-17 -2.99039212E-03  7.01057458E-04  8.38912121E-19  1.11864859E-02
  5.04059851E-03 -3.65651331E-02  7.80868404E-02  8.47644390E-16 -2.47848910E-01
 -1.85779037E-01  7.02392360E-02  2.28031721E-16 -1.38747082E-01 -1.13018257E-01
  1.22974362E-02 -1.39068970E-16  2.49080604E-02 -7.05087157E-03 -4.68078984E-17
 -2.92268781E-02 -1.15422809E-02  1.56600733E-01  2.10040996E-02 -4.17873931E-02
  6.53229027E-16 -2.96466302E-02 -2.88237438E-02 -4.10089645E-02  3.59592277E-16
 -1.66821868E-02 -1.72910917E-02  1.76720118E-03 -5.56849113E-17  2.99039212E-03
  7.01057458E-04 -2.10290098E-18 -1.15422809E-02  2.05009408E-03  1.11864859E-02
  5.04059851E-03
Spin SCF Density                           R   N=         171
  2.06716783E-03 -9.29955708E-03  4.01950025E-02  3.52901255E-16 -9.79261931E-16