Calculo de punto sencillo de H2O^+1 a nivel de teoria UCCSD/6-31G(d), op
SP        UCCSD-FC                                                    6-31G(d)            
Number of atoms                            I                3
Info1-9                                    I   N=           9
          12          12           0           0           0         110
           1          14         301
Full Title                                 C   N=          11
Calculo de punto sencillo de H2O^+1 a nivel de teoria UCCSD/
6-31G(d), optimizada geometricamente a nivel de teoria B3LYP
/6-311G(d,p)
Route                                      C   N=           4
# UCCSD/6-31g(d) NoSymm 5D Density=Current      
Charge                                     I                1
Multiplicity                               I                2
Number of electrons                        I                9
Number of alpha electrons                  I                5
Number of beta electrons                   I                4
Number of basis functions                  I               18
Number of independent functions            I               18
Number of point charges in /Mol/           I                0
Number of translation vectors              I                0
Atomic numbers                             I   N=           3
           8           1           1
Nuclear charges                            R   N=           3
  8.00000000E+00  1.00000000E+00  1.00000000E+00
Current cartesian coordinates              R   N=           9
  0.00000000E+00  0.00000000E+00  2.24244351E-01  0.00000000E+00  1.43041685E+00
 -8.96979292E-01  0.00000000E+00 -1.43041685E+00 -8.96979292E-01
Number of symbols in /Mol/                 I                0
Force Field                                I                0
Atom Types                                 C   N=           3
                                    
Int Atom Types                             I   N=           3
           0           0           0
MM charges                                 R   N=           3
  0.00000000E+00  0.00000000E+00  0.00000000E+00
Integer atomic weights                     I   N=           3
          16           1           1
Real atomic weights                        R   N=           3
  1.59949146E+01  1.00782504E+00  1.00782504E+00
Atom fragment info                         I   N=           3
           0           0           0
Atom residue num                           I   N=           3
           0           0           0
Nuclear spins                              I   N=           3
           0           1           1
Nuclear ZEff                               R   N=           3
 -5.60000000E+00 -1.00000000E+00 -1.00000000E+00
Nuclear ZNuc                               R   N=           3
  8.00000000E+00  1.00000000E+00  1.00000000E+00
Nuclear QMom                               R   N=           3
  0.00000000E+00  0.00000000E+00  0.00000000E+00
Nuclear GFac                               R   N=           3
  0.00000000E+00  2.79284600E+00  2.79284600E+00
MicOpt                                     I   N=           3
          -1          -1          -1
Number of residues                         I                0
Number of secondary structures             I                0
Number of contracted shells                I                8
Number of primitive shells                 I               19
Pure/Cartesian d shells                    I                0
Pure/Cartesian f shells                    I                0
Highest angular momentum                   I                2
Largest degree of contraction              I                6
Shell types                                I   N=           8
           0          -1          -1          -2           0           0
           0           0
Number of primitives per shell             I   N=           8
           6           3           1           1           3           1
           3           1
Shell to atom map                          I   N=           8
           1           1           1           1           2           2
           3           3
Primitive exponents                        R   N=          19
  5.48467166E+03  8.25234946E+02  1.88046958E+02  5.29645000E+01  1.68975704E+01
  5.79963534E+00  1.55396162E+01  3.59993359E+00  1.01376175E+00  2.70005823E-01
  8.00000000E-01  1.87311370E+01  2.82539436E+00  6.40121692E-01  1.61277759E-01
  1.87311370E+01  2.82539436E+00  6.40121692E-01  1.61277759E-01
Contraction coefficients                   R   N=          19
  1.83107443E-03  1.39501722E-02  6.84450781E-02  2.32714336E-01  4.70192898E-01
  3.58520853E-01 -1.10777550E-01 -1.48026263E-01  1.13076702E+00  1.00000000E+00
  1.00000000E+00  3.34946043E-02  2.34726953E-01  8.13757326E-01  1.00000000E+00
  3.34946043E-02  2.34726953E-01  8.13757326E-01  1.00000000E+00
P(S=P) Contraction coefficients            R   N=          19
  0.00000000E+00  0.00000000E+00  0.00000000E+00  0.00000000E+00  0.00000000E+00
  0.00000000E+00  7.08742682E-02  3.39752839E-01  7.27158577E-01  1.00000000E+00
  0.00000000E+00  0.00000000E+00  0.00000000E+00  0.00000000E+00  0.00000000E+00
  0.00000000E+00  0.00000000E+00  0.00000000E+00  0.00000000E+00
Coordinates of each shell                  R   N=          24
  0.00000000E+00  0.00000000E+00  2.24244351E-01  0.00000000E+00  0.00000000E+00
  2.24244351E-01  0.00000000E+00  0.00000000E+00  2.24244351E-01  0.00000000E+00
  0.00000000E+00  2.24244351E-01  0.00000000E+00  1.43041685E+00 -8.96979292E-01
  0.00000000E+00  1.43041685E+00 -8.96979292E-01  0.00000000E+00 -1.43041685E+00
 -8.96979292E-01  0.00000000E+00 -1.43041685E+00 -8.96979292E-01
Num ILSW                                   I              100
ILSW                                       I   N=         100
           1           0           0           0           2           0
           0           0           0           0           0          -1
           5           0           0           0           0           0
           0           0           1           0           0           0
           1           1           0           0           0           0
           0           0      100000           0          -1           0
           0           0           0           0           0           0
           0           0           0           1           1           0
           0 -2000000000           1           0           0           0
           0           0           4          52           0           0
           0           0           0           0           0           0
           0           0           0           0           4           1
           0           0           0           0           0           0
           0           0           0           0           0           0
           0           0           0           0           0           0
           0           0           0           0           0           0
           0           0           0           0
Num RLSW                                   I               52
RLSW                                       R   N=          52
  1.00000000E+00  1.00000000E+00  1.00000000E+00  1.00000000E+00  1.00000000E+00
  0.00000000E+00  0.00000000E+00  1.00000000E+00  0.00000000E+00  0.00000000E+00
  0.00000000E+00  0.00000000E+00  1.00000000E+00  0.00000000E+00  0.00000000E+00
  0.00000000E+00  0.00000000E+00  1.00000000E+00  0.00000000E+00  0.00000000E+00
  0.00000000E+00  0.00000000E+00  1.00000000E+00  0.00000000E+00  0.00000000E+00
  0.00000000E+00  0.00000000E+00  1.00000000E+00  0.00000000E+00  0.00000000E+00
  0.00000000E+00  0.00000000E+00  1.00000000E+00  0.00000000E+00  0.00000000E+00
  0.00000000E+00  0.00000000E+00  0.00000000E+00  1.00000000E+00  1.00000000E+00
  0.00000000E+00  1.00000000E+00  0.00000000E+00  0.00000000E+00  0.00000000E+00
  0.00000000E+00  0.00000000E+00  0.00000000E+00  0.00000000E+00  0.00000000E+00
  0.00000000E+00  0.00000000E+00
MxBond                                     I                2
NBond                                      I   N=           3
           2           1           1
IBond                                      I   N=           6
           2           3           1           0           1           0
RBond                                      R   N=           6
  1.00000000E+00  1.00000000E+00  1.00000000E+00  0.00000000E+00  1.00000000E+00
  0.00000000E+00
Virial Ratio                               R      1.999040425605711E+00
SCF Energy                                 R     -7.561068185492636E+01
MP2 Energy                                 R     -7.574635519731889E+01
MP3 Energy                                 R     -7.575953823046667E+01
MP4D Energy                                R     -7.576266112376516E+01
MP4DQ Energy                               R     -7.576134870379869E+01
MP4SDQ Energy                              R     -7.576187532379909E+01
Cluster Energy                             R     -7.576283712633172E+01
Total Energy                               R     -7.576283712633172E+01
PUHF Energy                                R     -7.561377656657201E+01
PMP2-0 Energy                              R     -7.574818913562778E+01
PMP3-0 Energy                              R     -7.576057541429564E+01
Post-SCF wavefunction norm                 R      1.022667983279031E+00
S**2                                       R      7.566775992990973E-01
S**2 after annihilation                    R      7.500264298880422E-01
S**2 corrected to first order              R      7.512238338359556E-01
RMS Density                                R      7.009147730376332E-09
Job Status                                 I                1
Nuclear derivative order                   I                0
External E-field                           R   N=          35
  0.00000000E+00  0.00000000E+00  0.00000000E+00  0.00000000E+00  0.00000000E+00
  0.00000000E+00  0.00000000E+00  0.00000000E+00  0.00000000E+00  0.00000000E+00
  0.00000000E+00  0.00000000E+00  0.00000000E+00  0.00000000E+00  0.00000000E+00
  0.00000000E+00  0.00000000E+00  0.00000000E+00  0.00000000E+00  0.00000000E+00
  0.00000000E+00  0.00000000E+00  0.00000000E+00  0.00000000E+00  0.00000000E+00
  0.00000000E+00  0.00000000E+00  0.00000000E+00  0.00000000E+00  0.00000000E+00
  0.00000000E+00  0.00000000E+00  0.00000000E+00  0.00000000E+00  0.00000000E+00
IOpCl                                      I                1
IROHF                                      I                0
Alpha Orbital Energies                     R   N=          18
 -2.11387832E+01 -1.91492949E+00 -1.21955395E+00 -1.13391115E+00 -1.10054015E+00
 -1.28443428E-01 -4.02306762E-02  6.11959159E-01  6.45108719E-01  7.07854386E-01
  7.48902038E-01  9.18640287E-01  1.17665564E+00  1.49589152E+00  1.52443750E+00
  1.53120540E+00  2.11368021E+00  2.46404816E+00
Beta Orbital Energies                      R   N=          18
 -2.10936985E+01 -1.75733232E+00 -1.18065618E+00 -1.04774717E+00 -3.16118509E-01
 -1.13073697E-01 -3.10331239E-02  6.08051605E-01  7.38038054E-01  7.78831865E-01
  8.41006125E-01  9.44425675E-01  1.22796985E+00  1.55668033E+00  1.59551076E+00
  1.62920811E+00  2.18931800E+00  2.47762236E+00
Alpha MO coefficients                      R   N=         324
  9.95532609E-01  2.33714961E-02 -9.89544551E-17 -3.56101163E-16 -1.73655270E-03
 -8.75817293E-03 -8.76934342E-17 -8.20012892E-17  1.98034242E-03 -1.31107392E-04
 -4.88431656E-18  1.51163668E-16  4.76272294E-04 -1.04406135E-16  3.63319216E-04
  2.03302262E-03  3.63319216E-04  2.03302262E-03 -2.23829592E-01  5.30856634E-01
  1.24824565E-16 -1.28683463E-15 -1.03843241E-01  4.87814275E-01  1.02732040E-16
 -1.69022376E-15 -6.65036344E-02 -2.05241003E-03  2.51716071E-17  9.01176114E-17
 -1.79165493E-03 -1.17969869E-16  1.11502454E-01 -3.54799672E-02  1.11502454E-01
 -3.54799672E-02 -2.82219284E-16  1.29794293E-15  5.53919141E-15  5.92848066E-01
  1.58510398E-15 -8.34723595E-16  3.15077714E-15  3.25664702E-01  1.70115184E-15
  1.10850997E-18 -3.96699805E-17 -5.87834406E-02 -2.06341345E-16 -1.39768195E-16
  2.04119286E-01  1.73462946E-02 -2.04119286E-01 -1.73462946E-02  2.43021535E-15
 -6.74167049E-15  7.30574662E-01 -4.33435276E-15 -2.57148501E-14 -7.00888346E-15
  4.07631121E-01 -2.35291935E-15 -1.34871347E-14  1.36440603E-15 -3.72401471E-02
  4.34603540E-16 -4.10985509E-16  3.42475081E-16  3.42500926E-15  3.31720974E-16
  5.87567417E-15  1.42345901E-15 -6.29358589E-02  1.80876519E-01  2.73736557E-14
 -1.42276153E-15  6.35648055E-01  1.77461744E-01  1.65080122E-14  3.72059819E-16
  3.71250596E-01 -4.43375430E-02 -1.66258584E-15  7.49332533E-17  1.43061449E-02
  1.86651937E-16 -1.25832232E-01 -2.51371889E-02 -1.25832232E-01 -2.51371889E-02
 -8.36653939E-02  1.72744114E-01 -6.31152040E-16  4.97659593E-15 -2.35769868E-01
  1.04117185E+00 -3.76983945E-16  1.54917129E-14 -3.97290241E-01  8.22069845E-03
 -7.33452283E-17 -4.69740336E-16  8.01451128E-03  1.80021875E-17 -1.14810418E-01
 -9.26337672E-01 -1.14810418E-01 -9.26337672E-01 -1.53560133E-15  8.24889831E-15
  4.58571417E-17 -3.63061675E-01 -5.20270181E-15  8.43020950E-15  5.61031991E-17
 -7.04175579E-01 -4.79624788E-15 -7.23101384E-16  2.82288421E-16  1.67407519E-03
  5.34079387E-16 -2.43315885E-16  1.41670524E-01  1.27555832E+00 -1.41670524E-01
 -1.27555832E+00 -9.25793345E-16  7.29401292E-15  6.97669772E-15 -9.99900976E-02
  1.91691434E-16 -5.33309258E-15 -8.56229076E-15 -5.20219127E-01 -6.17127370E-15
 -3.46484454E-16 -2.68708180E-15 -2.24982751E-01  1.13479848E-15  1.06837624E-16
  8.16030823E-01 -5.98607418E-01 -8.16030823E-01  5.98607418E-01  2.91668948E-16
 -1.07220923E-15 -8.95704536E-01 -4.05668295E-16  3.00164808E-16  1.90135887E-16
  1.08077212E+00 -5.02560162E-15  3.50958873E-15  1.34580818E-16 -2.53320000E-02
 -2.04474032E-15 -1.92336341E-15  1.02992288E-15  1.25211895E-14 -7.69692255E-15
 -6.79993848E-16  8.30342161E-16  2.72017134E-02 -9.70815991E-02  4.46343211E-15
 -1.17984609E-14  6.84882766E-01  1.52812203E-01 -5.11181582E-15  1.20135366E-14
 -4.25043341E-01  1.37309610E-02 -6.00075312E-16 -1.81126952E-15 -2.08152542E-01
 -1.29076042E-15  6.85745956E-01 -5.48621753E-01  6.85745956E-01 -5.48621753E-01
  6.05744932E-02 -4.39550118E-01  4.76042590E-15 -9.85912848E-15 -6.16141391E-01
  1.62756991E-01 -5.51620574E-15  8.27619816E-15  1.10808711E+00 -2.50492207E-02
  9.88289222E-16 -2.26388441E-15 -1.75619053E-01 -3.70306332E-18  5.20309710E-01
 -1.28824237E-01  5.20309710E-01 -1.28824237E-01 -4.54287416E-16 -1.75607005E-15
 -5.59388771E-16 -9.77669653E-01  1.96132526E-16  3.95179262E-15  7.25002408E-16
  1.62615285E+00 -6.86360046E-15 -3.44705460E-16  7.88903730E-16 -7.58831941E-03
  5.12268020E-15 -3.08567843E-15  7.68792529E-02 -9.99002771E-01 -7.68792529E-02
  9.99002771E-01  5.86141589E-02 -1.58151860E+00 -7.86146058E-16  2.73553332E-15
  2.31776338E-01  2.53814098E+00  1.05749932E-15 -7.38621275E-15 -7.16009893E-01
  1.97329555E-02  1.32438012E-15 -2.87450817E-15  2.69783226E-01  1.56611617E-15
 -1.77237844E-01 -6.85187880E-01 -1.77237844E-01 -6.85187880E-01 -6.26021391E-17
  2.09348668E-15  2.40744025E-15 -2.72167593E-15  1.28122281E-15 -2.02571122E-15
 -4.54529420E-15  4.41743835E-15 -1.88241429E-15 -1.68996325E-14 -2.73147554E-14
  4.50340555E-16 -3.55807645E-15  1.00000000E+00  1.15583754E-15 -3.30181641E-15
  1.06671983E-15  1.06455106E-15 -2.58620048E-03  6.47069052E-02  3.88853111E-17
 -1.10109899E-15 -3.52241332E-03 -1.13007219E-01 -2.57324504E-15  3.95207087E-16
  9.64015123E-02  9.92653137E-01 -4.70081597E-14 -8.14934346E-16  9.26895960E-02
  1.73736536E-14  2.91390957E-02  2.98406617E-02  2.91390957E-02  2.98406617E-02
 -3.59042625E-16  5.19275489E-15  4.52130875E-03  7.41609364E-16  1.39808781E-15
 -6.46216439E-15  4.26015935E-02 -4.05524311E-15  2.22857011E-15  4.68390756E-14
  9.98985216E-01  4.79504541E-16  2.70557095E-15  2.82422398E-14  3.80383124E-15
  3.69002079E-16 -2.23657879E-15  1.82824876E-15 -2.49434948E-02 -5.85649680E-01
 -4.57042153E-16 -7.38033839E-16  5.31649317E-02  1.44787626E+00  2.31161723E-17
  1.19505707E-15 -7.76926599E-01  1.27665148E-01 -1.32241423E-15 -6.27894019E-17
 -1.06067348E+00 -3.95152101E-16 -8.87433963E-01 -1.31077905E-01 -8.87433963E-01
 -1.31077905E-01  1.06167609E-17 -2.47011807E-15 -4.73925039E-16  2.84083684E-02
  7.48379214E-16  4.96780642E-15  5.83917656E-16 -8.63570551E-01 -1.94515085E-15
  7.90983326E-16 -1.43838284E-15  1.27494133E+00  3.48220686E-16 -5.85405279E-16
  9.59837773E-01 -5.25785791E-02 -9.59837773E-01  5.25785791E-02
Beta MO coefficients                       R   N=         324
  9.96141985E-01  2.03162273E-02 -9.21729539E-17 -1.20577507E-16 -1.60189219E-03
 -7.57192971E-03 -8.70169551E-17 -1.51643149E-15  1.62947319E-03  4.07051306E-04
  6.01239953E-18  1.17978314E-15 -5.13819448E-04  2.18589228E-18  1.17042981E-04
  1.77179477E-03  1.17042981E-04  1.77179477E-03 -2.13414236E-01  4.86128033E-01
  5.99425967E-17 -3.75339983E-17 -1.13745898E-01  4.83847659E-01  6.57646806E-17
 -1.12781186E-15 -7.11392290E-02  1.91851293E-02  2.02839693E-16 -1.74550016E-16
 -3.79154534E-02  9.25664516E-17  1.37355140E-01 -2.52755570E-02  1.37355140E-01
 -2.52755570E-02  1.22328022E-16 -3.69095487E-17  7.05348602E-16  5.60277756E-01
 -1.49303558E-15 -2.77176916E-15  6.29483627E-16  3.19249830E-01  5.38098464E-17
  2.27445047E-16 -5.95896450E-16 -5.70239114E-02 -1.61252104E-16 -1.21400620E-16
  2.26382691E-01  3.45594890E-02 -2.26382691E-01 -3.45594890E-02 -7.23472502E-02
  1.95302563E-01  2.56949578E-15  2.37046458E-15  6.10833873E-01  2.19783890E-01
  2.63363752E-15  2.21511521E-16  3.81755164E-01 -3.35144119E-02 -1.79635165E-16
  2.08444398E-16 -1.21905860E-03  1.66240651E-16 -1.28661570E-01 -3.17571053E-02
 -1.28661570E-01 -3.17571053E-02  3.78793655E-16 -3.97495679E-16  5.35457737E-01
  1.13842959E-16 -1.56135853E-15 -2.57387630E-15  6.16903831E-01 -6.34286945E-16
 -1.84371838E-15 -3.60552632E-17 -3.72035241E-02  7.98584421E-17  5.44727425E-17
 -4.87556718E-16  5.75054147E-16  5.88444529E-16  1.30137867E-15  9.75185053E-16
 -8.88461181E-02  1.61674098E-01 -1.29533295E-16 -4.75574135E-16 -2.34264410E-01
  1.10075585E+00  2.49616373E-16  1.23783228E-15 -4.16833236E-01  1.55888680E-02
 -1.45184456E-17 -3.17871883E-16 -6.49808678E-03 -3.58806618E-16 -1.01873234E-01
 -9.46978288E-01 -1.01873234E-01 -9.46978288E-01 -4.28253050E-17  4.67977711E-15
  1.29261986E-16 -3.67687632E-01 -5.57158533E-16 -7.31360361E-15  3.11548848E-16
 -7.40177739E-01  1.77757390E-15 -1.96128219E-16 -1.10352918E-16  4.44577256E-03
  3.23445789E-16  2.88952566E-16  1.32158705E-01  1.29083703E+00 -1.32158705E-01
 -1.29083703E+00 -9.88327661E-16  4.28917671E-15  1.20971072E-15 -1.05416044E-01
 -4.81922744E-15 -1.35438384E-15 -7.65112163E-16 -5.34561722E-01 -2.57977171E-15
  1.12147460E-15 -6.17191502E-16 -2.20053844E-01  2.14075895E-15 -3.28673743E-17
  8.15738317E-01 -5.93914275E-01 -8.15738317E-01  5.93914275E-01  2.75269422E-02
 -6.33621941E-02  1.79223475E-16 -1.31810363E-15  7.74655603E-01  9.79888193E-02
 -1.13408769E-15 -5.89363417E-15 -5.41066324E-01 -7.77601154E-03  6.97619108E-16
 -2.75059797E-15 -1.55113659E-01 -1.96946218E-15  6.28958423E-01 -5.15681756E-01
  6.28958423E-01 -5.15681756E-01  7.24599238E-02 -4.62300460E-01 -7.65869289E-15
 -3.51946493E-15 -5.28258591E-01  1.27153329E-01  7.87388634E-15 -8.15537490E-16
  1.06125393E+00 -5.23740714E-02  1.66960000E-16 -1.97584807E-15 -1.67719834E-01
  4.92088845E-16  6.27572562E-01 -1.87145750E-01  6.27572562E-01 -1.87145750E-01
  5.08871474E-16 -2.45518846E-15  1.02436336E+00 -5.50498740E-16 -4.96602906E-15
 -7.18178725E-16 -9.76714096E-01  1.73520967E-15  8.58440338E-15  2.50454787E-16
  1.61966696E-02  5.48244652E-16 -1.55760821E-15 -8.13868221E-16  3.93827454E-15
 -9.35841894E-16  5.85402819E-15 -9.22062841E-16  3.87006320E-16 -1.23326151E-14
 -6.24571395E-16 -9.94478947E-01  3.67571879E-15  2.02026083E-14  1.06094326E-15
  1.60671308E+00 -8.92736585E-15 -2.10772246E-15 -9.38770801E-16 -6.88146684E-03
  1.73884843E-15  4.56516642E-16  7.82469985E-02 -9.81670690E-01 -7.82469985E-02
  9.81670690E-01  5.80076600E-02 -1.58217296E+00  8.79389518E-16  7.17675922E-15
  2.29791810E-01  2.53225823E+00 -1.06298953E-15 -1.28064747E-14 -7.13189533E-01
  6.09269466E-02  2.06370834E-15 -1.58263254E-15  2.65983702E-01 -1.65200291E-15
 -1.94833639E-01 -6.67920919E-01 -1.94833639E-01 -6.67920919E-01  2.84225858E-03
  1.37768225E-01 -1.21782202E-15 -3.63348086E-15 -1.60052249E-02 -3.04330160E-01
  1.68583967E-15  6.32203595E-15  1.83063858E-01  9.81539705E-01  1.85166896E-14
 -3.61330377E-16  1.34468020E-01 -2.98845333E-15  1.13555216E-01  5.42569357E-02
  1.13555216E-01  5.42569357E-02  9.79691348E-17 -1.77207079E-15  1.54620074E-15
  1.09468672E-15  3.98353536E-15  3.39580578E-15 -4.67739277E-16 -2.88916274E-15
 -2.87421831E-15  2.94550106E-15  1.66475696E-14  9.80975179E-16  7.00916524E-16
  1.00000000E+00  2.39070383E-15 -8.44235662E-16  1.71307239E-15 -4.75082019E-15
 -1.34209928E-16  1.95017165E-15  3.33238433E-03 -1.44767283E-15 -1.33599868E-15
 -3.09114333E-15  3.88024680E-02  2.19697523E-16 -3.27463554E-16 -1.92926750E-14
  9.99176444E-01  1.17007748E-15 -2.41744747E-15 -1.73938439E-14 -2.46463971E-16
  1.40335538E-15 -3.98062019E-15  3.44388015E-15 -1.63089404E-02 -5.95744849E-01
 -6.67519778E-16  8.03489023E-17  5.02862470E-02  1.38918527E+00  8.42571928E-17
 -2.93423611E-15 -7.40591444E-01  1.82294817E-01  6.40383701E-16  3.68612824E-15
 -1.06693193E+00  2.10350177E-16 -8.46244554E-01 -1.29229980E-01 -8.46244554E-01
 -1.29229980E-01 -4.33685529E-18  3.64396073E-16 -4.97274963E-16  2.68204872E-02
  4.39928515E-16 -1.32847057E-15  6.17721555E-16 -8.63486636E-01  8.11409080E-16
  3.06360028E-16 -1.63726145E-15  1.27587851E+00  3.41129776E-15 -1.01343773E-15
  9.56333548E-01 -5.08499091E-02 -9.56333548E-01  5.08499091E-02
Orthonormal basis                          R   N=         324
  5.29754065E-02  1.89461880E-01  1.49362543E-17 -3.35486742E-18 -6.69700749E-02
  2.51236217E-01  1.35518565E-18 -9.25816485E-18 -1.20849292E-01  4.87833645E-03
  2.47099600E-41  2.23599194E-18 -3.69260726E-02  0.00000000E+00  1.75470646E-01
  2.29903206E-01  1.75470646E-01  2.29903206E-01 -1.16325562E-17 -6.58901910E-17
 -1.87005569E-16  2.68325350E-01 -1.28533227E-16  4.85780520E-17 -1.74669666E-16
  3.84743925E-01 -7.19499310E-18  2.30620600E-18  0.00000000E+00 -1.46940550E-01
  2.48291752E-17  8.51823152E-27  2.63043966E-01  1.64872903E-01 -2.63043966E-01
 -1.64872903E-01  1.60443675E-01  2.83112581E-01 -5.21363531E-16 -2.23330231E-17
  4.34919400E-01  2.50156487E-01 -4.85128078E-16  3.22707207E-17  4.69165754E-01
 -1.01789698E-02 -3.01473852E-34 -2.50624074E-17  7.70486787E-02 -9.20025184E-39
 -1.19353201E-01  1.22196686E-02 -1.19353201E-01  1.22196686E-02  2.94501229E-16
  1.51477136E-16  5.77057836E-01  8.15514239E-17  5.40596917E-16  3.04196926E-16
  5.77057836E-01  1.07455254E-16  4.46154812E-16  3.08902191E-16  0.00000000E+00
 -1.55000667E-16 -2.15202737E-18  8.64061504E-23  4.81626948E-17  1.10232176E-16
 -2.23647552E-16 -9.36255094E-17  2.23952472E-16  9.04984783E-17  7.04320615E-17
  3.71794071E-01 -2.37805857E-16  2.05025886E-16  1.24632135E-16  2.61844932E-01
 -1.22835269E-16 -1.75076115E-17  2.07075254E-16  7.71569925E-01  8.77193847E-16
 -4.04443856E-19 -1.81983420E-01  2.61085026E-02  1.81983420E-01 -2.61085026E-02
  3.15893995E-01  1.46468835E-01 -1.33065838E-17 -3.17719327E-16 -2.83268783E-01
  4.15160948E-02  1.48495688E-17 -4.72993607E-16 -1.70028837E-01 -1.04236456E-01
 -3.78195859E-31 -8.60443103E-16  7.89007274E-01  2.95465515E-33 -1.63295414E-01
 -1.62743978E-02 -1.63295414E-01 -1.62743978E-02 -5.86699879E-16 -1.94856467E-16
 -4.96839318E-16 -1.58878029E-16  2.02736103E-16  1.13878702E-17 -5.09699174E-16
  3.29357135E-17  1.41841441E-16  9.91385951E-01 -2.99760217E-15 -8.16508468E-17
  1.30972884E-01  3.81639165E-17  7.24183019E-17  1.89633706E-16  5.75448936E-17
  1.32032596E-16 -1.48814957E-19 -2.23316938E-17 -8.25726340E-17  4.83151405E-16
  3.46729218E-18  4.78926249E-17  8.46201253E-17 -4.25712544E-16 -1.80188971E-17
  2.74667063E-15  9.99745759E-01 -4.27985915E-16  3.57696225E-16 -2.25481319E-02
 -8.32034355E-17  1.67666044E-17  6.58153076E-17 -4.66861543E-17 -1.95880234E-32
 -2.71647456E-30  1.29016799E-17  3.37083419E-17  4.56880336E-31  5.86821241E-30
 -1.28804234E-17 -2.19481171E-17 -2.14681081E-30  2.31527533E-17  2.25481319E-02
 -4.48733220E-17  3.05873092E-18  9.99745759E-01 -5.83177734E-17  7.12251629E-17
  5.83177734E-17 -7.12251629E-17  8.46564390E-01  1.09580183E-01 -8.39513415E-17
 -3.49265403E-17 -1.82140862E-01 -9.90599974E-02 -3.37657817E-16  2.06138853E-17
 -4.64414193E-02  5.58675926E-02 -2.48545899E-30  1.60792325E-16 -4.22884072E-01
  3.26216493E-32  1.53745747E-02 -1.73583623E-01  1.53745747E-02 -1.73583623E-01
 -4.03283660E-15  6.24809024E-15 -2.69242281E-16  9.77582480E-01 -6.67087868E-15
  1.96325667E-15  2.83024204E-16 -3.67265104E-01  2.68178536E-15  3.45469975E-17
 -5.83964829E-16 -3.88658620E-01 -2.32039806E-15 -3.38530335E-17 -1.35912137E-01
 -3.23325175E-01  1.35912137E-01  3.23325175E-01  4.25677672E-01 -6.64752309E-01
 -3.39857333E-16  9.50397551E-15  7.07377863E-01 -2.12328485E-01  2.64608812E-16
 -3.52107704E-15 -2.78763464E-01 -2.84277950E-02  1.97171531E-24 -3.44152432E-15
  2.15181309E-01 -4.44702104E-26  1.17365301E-01  2.98648100E-01  1.17365301E-01
  2.98648100E-01  1.27954153E-16 -6.53893567E-16  1.00152416E+00  5.76054382E-16
 -1.26080264E-16 -6.04946335E-17 -1.00152416E+00 -3.92136433E-16 -8.65094581E-17
  1.19919685E-16  2.45700865E-17 -2.02745382E-17 -2.13688837E-16  6.28994214E-16
 -5.00925053E-16  3.85202750E-16 -6.97485745E-16  1.09282124E-15  1.73928222E-01
 -7.88921240E-01 -4.90638727E-16 -4.48015719E-18 -7.18841665E-01  2.21751494E-01
  8.10023572E-16 -6.61987595E-18  8.86674979E-01  4.73234577E-03  7.18261134E-23
 -4.57655025E-16 -3.58210110E-02 -1.61995663E-24 -1.23816322E-01  4.03787724E-01
 -1.23816322E-01  4.03787724E-01  6.37476142E-02 -2.71729300E-01  1.22817184E-15
  3.26376588E-16 -2.57814251E-02  1.58874362E-01 -8.08415174E-16 -8.89079203E-18
  5.75308467E-01 -7.21345329E-02 -2.99992030E-20 -7.24163459E-16  5.46015025E-01
  6.76598005E-22  1.08671698E+00 -6.19544299E-01  1.08671698E+00 -6.19544299E-01
  9.56718679E-17 -4.67396003E-16 -4.75799010E-16 -3.73804382E-02 -2.18816538E-16
  6.39436457E-17  7.37061726E-16 -7.08252621E-01  5.72685028E-16  2.60231494E-16
 -6.41249393E-16  8.80666428E-01  4.77888394E-16 -1.90265913E-16  1.21933106E+00
 -6.96123288E-01 -1.21933106E+00  6.96123288E-01  1.54189416E-16  3.31394088E-16
  1.98067978E-17 -5.31630969E-01  3.93897894E-16 -2.11789738E-15  9.70684440E-17
  1.84650475E+00  7.02189415E-16 -1.14781937E-16  7.77184746E-17 -3.68873890E-01
  4.79775628E-16  1.22530744E-16 -2.17462769E-01 -1.53930513E+00  2.17462769E-01
  1.53930513E+00 -9.70852153E-03 -1.45199034E+00 -3.74082030E-16 -3.00602965E-16
  2.25473471E-01  3.11415411E+00 -4.53591368E-16  1.46028970E-15 -1.17197327E+00
  4.36782995E-02 -2.44053114E-16 -4.36685269E-16 -3.30618455E-01  5.50434124E-18
 -5.65882864E-01 -9.72450955E-01 -5.65882864E-01 -9.72450955E-01
Total SCF Density                          R   N=         171
  2.08822440E+00 -2.04576355E-01  5.89947612E-01 -3.64288504E-16  6.19005423E-16
  5.33739336E-01 -3.59310040E-16  2.42273683E-16  5.12521749E-16  6.65379993E-01
 -4.00035301E-02  1.23777155E-01  1.63467199E-16  7.85505619E-16  8.00893599E-01
 -2.55778480E-01  5.68835849E-01  3.93456667E-16 -2.42118593E-15  1.41390093E-01
  5.52002992E-01 -4.49863459E-16  8.34841889E-16  2.97804969E-01  4.53800735E-16
  1.60197084E-15  7.34693870E-16  1.66163131E-01 -1.06550015E-15 -9.56782634E-16
  3.10118281E-16  3.71938267E-01  7.17740744E-16 -2.40001970E-15  2.67936286E-16
  2.07977952E-01 -1.73216238E-02  7.19009964E-02  1.27713368E-15  1.50275670E-15
  4.84165403E-01  8.28947589E-02  1.62441229E-15  9.83878801E-16  2.93054110E-01
  1.85506650E-03 -6.32297169E-03 -3.02126035E-16  1.13645227E-16 -5.06243362E-02
 -6.95459442E-03 -2.62988222E-16  3.02780500E-17 -3.04825580E-02  3.46149798E-03
 -2.06655198E-17  2.72314239E-17 -2.72067079E-02 -1.95973863E-16 -2.34609134E-16
  3.69053842E-17 -1.51802429E-02 -1.15535890E-16 -1.99653495E-16  3.27675882E-17
  1.38682855E-03  1.33261818E-15 -2.94418937E-17 -4.83241313E-17 -6.67988782E-02
  1.75260793E-16  2.15483438E-16 -4.39512112E-17 -3.73485657E-02  1.29717201E-17
 -2.64165254E-17  2.01275846E-17  6.70721936E-03  7.64285641E-03 -1.70326240E-02
  8.57273563E-17 -2.32297966E-16  1.28478054E-02 -1.69487149E-02  6.27503586E-17
 -6.70951804E-17  7.66231650E-03 -1.31745054E-03 -1.60023206E-17  2.80650628E-17
  1.64743436E-03 -1.18886258E-16  4.62065189E-17  2.50203616E-16 -1.50879371E-16
  2.22089486E-16  5.77991257E-17  1.39603501E-16 -8.42746949E-17  1.33814991E-16
 -1.18145459E-17 -1.27538224E-17  1.51387936E-17 -8.81574033E-19  2.47428197E-31
 -3.65651331E-02  7.80868404E-02  3.95808802E-17  2.47848910E-01 -1.85779037E-01
  7.02392360E-02 -2.13863062E-16  1.38747082E-01 -1.13018257E-01  1.22974362E-02
 -7.56016959E-18 -2.49080604E-02 -7.05087157E-03 -1.01365125E-16  1.56600733E-01
  2.10040996E-02 -4.17873931E-02 -4.13196972E-16  2.96466302E-02 -2.88237438E-02
 -4.10089645E-02 -2.92612619E-16  1.66821868E-02 -1.72910917E-02  1.76720118E-03
  7.84283422E-18 -2.99039212E-03  7.01057458E-04 -1.49537192E-17  1.11864859E-02
  5.04059851E-03 -3.65651331E-02  7.80868404E-02 -7.50694459E-16 -2.47848910E-01
 -1.85779037E-01  7.02392360E-02 -7.86172936E-16 -1.38747082E-01 -1.13018257E-01
  1.22974362E-02  1.87172808E-16  2.49080604E-02 -7.05087157E-03  1.06596413E-17
 -2.92268781E-02 -1.15422809E-02  1.56600733E-01  2.10040996E-02 -4.17873931E-02
  1.43477309E-16 -2.96466302E-02 -2.88237438E-02 -4.10089645E-02 -4.04099960E-19
 -1.66821868E-02 -1.72910917E-02  1.76720118E-03  9.75035711E-18  2.99039212E-03