Calculo de punto sencillo de H2O a nivel de teoria CISD/6-31G(d), optimi
SP        RCISD-FC                                                    6-31G(d)            
Number of atoms                            I                3
Info1-9                                    I   N=           9
          12          12           0           0           0         110
           1           5         301
Full Title                                 C   N=          11
Calculo de punto sencillo de H2O a nivel de teoria CISD/6-31
G(d), optimizada geometricamente a nivel de teoria B3LYP/6-3
11G(d,p)    
Route                                      C   N=           4
# CISD/6-31g(d) NoSymm 5D Density=Current       
Charge                                     I                0
Multiplicity                               I                1
Number of electrons                        I               10
Number of alpha electrons                  I                5
Number of beta electrons                   I                5
Number of basis functions                  I               18
Number of independent functions            I               18
Number of point charges in /Mol/           I                0
Number of translation vectors              I                0
Atomic numbers                             I   N=           3
           8           1           1
Nuclear charges                            R   N=           3
  8.00000000E+00  1.00000000E+00  1.00000000E+00
Current cartesian coordinates              R   N=           9
  0.00000000E+00  0.00000000E+00  2.24244351E-01  0.00000000E+00  1.43041685E+00
 -8.96979292E-01  0.00000000E+00 -1.43041685E+00 -8.96979292E-01
Number of symbols in /Mol/                 I                0
Force Field                                I                0
Atom Types                                 C   N=           3
                                    
Int Atom Types                             I   N=           3
           0           0           0
MM charges                                 R   N=           3
  0.00000000E+00  0.00000000E+00  0.00000000E+00
Integer atomic weights                     I   N=           3
          16           1           1
Real atomic weights                        R   N=           3
  1.59949146E+01  1.00782504E+00  1.00782504E+00
Atom fragment info                         I   N=           3
           0           0           0
Atom residue num                           I   N=           3
           0           0           0
Nuclear spins                              I   N=           3
           0           1           1
Nuclear ZEff                               R   N=           3
 -5.60000000E+00 -1.00000000E+00 -1.00000000E+00
Nuclear ZNuc                               R   N=           3
  8.00000000E+00  1.00000000E+00  1.00000000E+00
Nuclear QMom                               R   N=           3
  0.00000000E+00  0.00000000E+00  0.00000000E+00
Nuclear GFac                               R   N=           3
  0.00000000E+00  2.79284600E+00  2.79284600E+00
MicOpt                                     I   N=           3
          -1          -1          -1
Number of residues                         I                0
Number of secondary structures             I                0
Number of contracted shells                I                8
Number of primitive shells                 I               19
Pure/Cartesian d shells                    I                0
Pure/Cartesian f shells                    I                0
Highest angular momentum                   I                2
Largest degree of contraction              I                6
Shell types                                I   N=           8
           0          -1          -1          -2           0           0
           0           0
Number of primitives per shell             I   N=           8
           6           3           1           1           3           1
           3           1
Shell to atom map                          I   N=           8
           1           1           1           1           2           2
           3           3
Primitive exponents                        R   N=          19
  5.48467166E+03  8.25234946E+02  1.88046958E+02  5.29645000E+01  1.68975704E+01
  5.79963534E+00  1.55396162E+01  3.59993359E+00  1.01376175E+00  2.70005823E-01
  8.00000000E-01  1.87311370E+01  2.82539436E+00  6.40121692E-01  1.61277759E-01
  1.87311370E+01  2.82539436E+00  6.40121692E-01  1.61277759E-01
Contraction coefficients                   R   N=          19
  1.83107443E-03  1.39501722E-02  6.84450781E-02  2.32714336E-01  4.70192898E-01
  3.58520853E-01 -1.10777550E-01 -1.48026263E-01  1.13076702E+00  1.00000000E+00
  1.00000000E+00  3.34946043E-02  2.34726953E-01  8.13757326E-01  1.00000000E+00
  3.34946043E-02  2.34726953E-01  8.13757326E-01  1.00000000E+00
P(S=P) Contraction coefficients            R   N=          19
  0.00000000E+00  0.00000000E+00  0.00000000E+00  0.00000000E+00  0.00000000E+00
  0.00000000E+00  7.08742682E-02  3.39752839E-01  7.27158577E-01  1.00000000E+00
  0.00000000E+00  0.00000000E+00  0.00000000E+00  0.00000000E+00  0.00000000E+00
  0.00000000E+00  0.00000000E+00  0.00000000E+00  0.00000000E+00
Coordinates of each shell                  R   N=          24
  0.00000000E+00  0.00000000E+00  2.24244351E-01  0.00000000E+00  0.00000000E+00
  2.24244351E-01  0.00000000E+00  0.00000000E+00  2.24244351E-01  0.00000000E+00
  0.00000000E+00  2.24244351E-01  0.00000000E+00  1.43041685E+00 -8.96979292E-01
  0.00000000E+00  1.43041685E+00 -8.96979292E-01  0.00000000E+00 -1.43041685E+00
 -8.96979292E-01  0.00000000E+00 -1.43041685E+00 -8.96979292E-01
Num ILSW                                   I              100
ILSW                                       I   N=         100
           0           0           0           0           2           0
           0           0           0           0           0          -1
           5           0           0           0           0           0
           0           0           1           0           0           0
           1           1           0           0           0           0
           0           0      100000           0          -1           0
           0           0           0           0           0           0
           0           0           0           1           1           0
           0 -2000000000           1           0           0           0
           0           0           4          52           0           0
           0           0           0           0           0           0
           0           0           0           0           4           1
           0           0           0           0           0           0
           0           0           0           0           0           0
           0           0           0           0           0           0
           0           0           0           0           0           0
           0           0           0           0
Num RLSW                                   I               52
RLSW                                       R   N=          52
  1.00000000E+00  1.00000000E+00  1.00000000E+00  1.00000000E+00  1.00000000E+00
  0.00000000E+00  0.00000000E+00  1.00000000E+00  0.00000000E+00  0.00000000E+00
  0.00000000E+00  0.00000000E+00  1.00000000E+00  0.00000000E+00  0.00000000E+00
  0.00000000E+00  0.00000000E+00  1.00000000E+00  0.00000000E+00  0.00000000E+00
  0.00000000E+00  0.00000000E+00  1.00000000E+00  0.00000000E+00  0.00000000E+00
  0.00000000E+00  0.00000000E+00  1.00000000E+00  0.00000000E+00  0.00000000E+00
  0.00000000E+00  0.00000000E+00  1.00000000E+00  0.00000000E+00  0.00000000E+00
  0.00000000E+00  0.00000000E+00  0.00000000E+00  1.00000000E+00  1.00000000E+00
  0.00000000E+00  1.00000000E+00  0.00000000E+00  0.00000000E+00  0.00000000E+00
  0.00000000E+00  0.00000000E+00  0.00000000E+00  0.00000000E+00  0.00000000E+00
  0.00000000E+00  0.00000000E+00
MxBond                                     I                2
NBond                                      I   N=           3
           2           1           1
IBond                                      I   N=           6
           2           3           1           0           1           0
RBond                                      R   N=           6
  1.00000000E+00  1.00000000E+00  1.00000000E+00  0.00000000E+00  1.00000000E+00
  0.00000000E+00
Virial Ratio                               R      2.000623944770054E+00
SCF Energy                                 R     -7.600887746542125E+01
MP2 Energy                                 R     -7.619384777615814E+01
MP3 Energy                                 R     -7.619999500616477E+01
Cluster Energy                             R     -7.619545318462777E+01
Total Energy                               R     -7.619545314438425E+01
Post-SCF wavefunction norm                 R      1.025464846193548E+00
RMS Density                                R      4.122689619217644E-09
Job Status                                 I                1
Nuclear derivative order                   I                0
External E-field                           R   N=          35
  0.00000000E+00  0.00000000E+00  0.00000000E+00  0.00000000E+00  0.00000000E+00
  0.00000000E+00  0.00000000E+00  0.00000000E+00  0.00000000E+00  0.00000000E+00
  0.00000000E+00  0.00000000E+00  0.00000000E+00  0.00000000E+00  0.00000000E+00
  0.00000000E+00  0.00000000E+00  0.00000000E+00  0.00000000E+00  0.00000000E+00
  0.00000000E+00  0.00000000E+00  0.00000000E+00  0.00000000E+00  0.00000000E+00
  0.00000000E+00  0.00000000E+00  0.00000000E+00  0.00000000E+00  0.00000000E+00
  0.00000000E+00  0.00000000E+00  0.00000000E+00  0.00000000E+00  0.00000000E+00
IOpCl                                      I                0
IROHF                                      I                0
Alpha Orbital Energies                     R   N=          18
 -2.05561473E+01 -1.33959963E+00 -7.02944256E-01 -5.71568989E-01 -4.97553633E-01
  2.13559421E-01  3.03223229E-01  1.01733382E+00  1.16228635E+00  1.16811006E+00
  1.19840829E+00  1.37911761E+00  1.66049030E+00  2.01953654E+00  2.03517564E+00
  2.06757165E+00  2.62471681E+00  2.93813706E+00
Alpha MO coefficients                      R   N=         324
  9.95793413E-01  2.19541398E-02 -8.30598589E-17  4.74641177E-16 -1.63730630E-03
 -8.09749605E-03 -9.15116149E-17 -7.30541381E-17  1.83263408E-03 -3.03037012E-05
  2.15698036E-18 -5.66557064E-17  2.90675324E-04 -2.70917440E-19  2.81593269E-04
  1.91680585E-03  2.81593269E-04  1.91680585E-03 -2.14007422E-01  4.68644470E-01
 -6.38911583E-16 -9.85167132E-16 -9.16548805E-02  4.94217934E-01  1.44278189E-16
 -1.10301339E-15 -5.73225572E-02  6.25979253E-03 -5.80673492E-17  1.19953918E-16
 -1.60626448E-02 -1.67892157E-16  1.30007349E-01 -7.99821861E-03  1.30007349E-01
 -7.99821861E-03 -6.38629196E-16  5.56804097E-16 -9.11662083E-16  5.06805115E-01
  4.34915258E-15  3.79238880E-15 -5.88721685E-16  3.08380466E-01  2.20240427E-15
 -1.76799974E-16 -1.73265740E-16 -5.13791602E-02  3.20079419E-17  2.87746334E-16
  2.30205940E-01  1.12495256E-01 -2.30205940E-01 -1.12495256E-01 -7.03913153E-02
  1.72067358E-01 -2.73556802E-15 -3.25759731E-15  5.53536648E-01  2.83068021E-01
 -2.19909108E-15 -2.11343052E-15  4.07222114E-01 -3.50380446E-02  1.55910084E-16
  3.13851229E-16  6.96070741E-03 -8.69530197E-18 -1.42120559E-01 -7.80669167E-02
 -1.42120559E-01 -7.80669167E-02 -2.05291615E-16  6.40730082E-16  6.39367125E-01
  5.21977522E-16  2.36755053E-15 -5.69809681E-16  5.11738716E-01  2.42297974E-16
  2.60915329E-15 -3.74705051E-16 -3.38991528E-02 -7.83663606E-17  1.23569827E-16
  2.46824801E-16  1.73491755E-16  1.11318455E-15 -7.62671217E-16  1.30685655E-15
 -8.58529339E-02  1.01713309E-01  9.78344415E-17 -1.93111268E-14 -2.20481785E-01
  1.18782619E+00  3.63540980E-16 -5.76735096E-14 -4.90485963E-01  1.36754828E-02
 -5.64229519E-17  2.48506979E-15 -8.45562996E-03  7.47234238E-17 -5.64464068E-02
 -9.96028536E-01 -5.64464068E-02 -9.96028536E-01  6.37740333E-15 -2.07419585E-14
 -4.06280515E-17 -3.31002268E-01  1.73675774E-14 -5.72484462E-14 -7.90189255E-17
 -8.29967395E-01  2.70176174E-14 -8.52100893E-16 -5.80545942E-17  2.21325904E-02
 -4.87623140E-17  2.58809562E-16  5.18743433E-02  1.38654007E+00 -5.18743433E-02
 -1.38654007E+00 -3.23435858E-16  2.41088171E-15  3.66298586E-15 -9.83002682E-02
  1.62441081E-15 -2.15053473E-15 -3.61627634E-15 -6.39426703E-01 -1.20309086E-15
  2.03622830E-16  1.21862826E-16 -1.97368857E-01 -1.02250360E-16 -6.86290905E-16
  8.38306513E-01 -4.79013333E-01 -8.38306513E-01  4.79013333E-01  6.53207377E-02
 -3.18925118E-01 -4.32436968E-14  7.06439900E-15  3.49795867E-01  1.11396886E-01
  4.64782039E-14 -5.22577539E-15  1.96927186E-01 -1.64026982E-02 -1.54057847E-15
  2.57698246E-15 -2.22790091E-01  6.01104743E-16  8.78247969E-01 -4.81872245E-01
  8.78247969E-01 -4.81872245E-01 -2.84109249E-15  1.00057792E-14 -9.62912967E-01
  1.68533969E-15 -1.38484425E-14  2.54547110E-15  1.03590454E+00 -5.60116187E-15
 -1.23800829E-14  6.57358135E-16 -1.48338865E-02 -1.01644451E-15  1.12583137E-14
  9.76855219E-16 -3.70467702E-14  1.95067371E-14 -4.32814176E-14  1.97089186E-14
  4.50211927E-02 -3.59470298E-01 -1.12544096E-15  1.45953359E-15 -9.09755607E-01
  8.83633191E-02  1.30996165E-15 -3.33912949E-15  1.14369730E+00 -2.20382467E-02
  5.34707679E-16 -2.71370601E-17 -4.21652835E-02 -9.79677296E-16  1.55571384E-01
  1.12962648E-01  1.55571384E-01  1.12962648E-01 -9.99851234E-16  3.23807278E-14
 -2.20985915E-15 -1.03602710E+00 -5.44071061E-15 -5.03283221E-14  2.51090548E-15
  1.53335900E+00  1.72983858E-14 -1.47455190E-15 -2.14887592E-17 -1.55651684E-02
 -5.88457669E-15 -2.79160345E-15  9.45918084E-02 -9.05456118E-01 -9.45918084E-02
  9.05456118E-01  6.48399124E-02 -1.60156530E+00  3.92025358E-15 -1.99793853E-14
  2.45010671E-01  2.50249162E+00 -4.68287510E-15  3.62531118E-14 -7.22513183E-01
  4.39241560E-02  1.48193247E-15  2.43029937E-15  2.53055635E-01 -2.15953996E-15
 -2.09768911E-01 -6.36505826E-01 -2.09768911E-01 -6.36505826E-01 -7.21089951E-04
  1.16090742E-01 -8.30585475E-16 -1.29551378E-15 -7.15776150E-03 -2.27367739E-01
  1.06849349E-16  1.45922283E-15  1.34908488E-01  9.86358262E-01  9.95811111E-16
 -1.02712328E-15  1.28294349E-01  7.65763599E-14  7.72852686E-02  4.31007888E-02
  7.72852686E-02  4.31007888E-02  2.33140510E-16 -1.39893042E-14  2.09009990E-15
 -3.66928578E-15 -1.35232482E-16  2.56073462E-14  2.62295773E-16  5.57782858E-15
 -1.13672529E-14 -7.56129105E-14  6.10954740E-14  7.13103522E-16 -9.73052999E-15
  1.00000000E+00 -5.32102223E-15 -1.04695703E-14 -1.01313487E-14  7.99114068E-16
 -2.68007184E-17  2.77601406E-15  7.39532669E-03 -7.97272546E-17  8.93895140E-16
 -4.84273253E-15  3.27364182E-02 -8.98604801E-16  9.92228062E-16 -1.26334960E-15
  9.99315167E-01  1.81643790E-15 -1.25215275E-16 -6.20440805E-14  2.69023114E-15
  4.57426698E-16  1.11947006E-15  2.42986768E-16 -1.97880852E-02 -5.71341907E-01
 -1.02332479E-15  1.75648083E-16  4.65178365E-02  1.37292939E+00  4.77073061E-16
  5.72337153E-15 -7.33106708E-01  1.66916459E-01  8.76534448E-16 -6.01579384E-15
 -1.07170728E+00 -9.57291027E-16 -8.46424717E-01 -1.22222946E-01 -8.46424717E-01
 -1.22222946E-01 -1.54370117E-16  2.33296406E-15 -3.60830197E-16  2.22843921E-02
 -6.08803535E-16 -1.34433171E-15  4.75772251E-16 -8.47747097E-01 -2.28256255E-15
  2.00398648E-15 -1.89713809E-15  1.27956324E+00 -5.09302885E-15 -1.22763095E-15
  9.42045303E-01 -4.47070551E-02 -9.42045303E-01  4.47070551E-02
Orthonormal basis                          R   N=         324
  5.29754065E-02  1.89461880E-01  1.49362543E-17 -3.35486742E-18 -6.69700749E-02
  2.51236217E-01  1.35518565E-18 -9.25816485E-18 -1.20849292E-01  4.87833645E-03
  2.47099600E-41  2.23599194E-18 -3.69260726E-02  0.00000000E+00  1.75470646E-01
  2.29903206E-01  1.75470646E-01  2.29903206E-01 -1.16325562E-17 -6.58901910E-17
 -1.87005569E-16  2.68325350E-01 -1.28533227E-16  4.85780520E-17 -1.74669666E-16
  3.84743925E-01 -7.19499310E-18  2.30620600E-18  0.00000000E+00 -1.46940550E-01
  2.48291752E-17  8.51823152E-27  2.63043966E-01  1.64872903E-01 -2.63043966E-01
 -1.64872903E-01  1.60443675E-01  2.83112581E-01 -5.21363531E-16 -2.23330231E-17
  4.34919400E-01  2.50156487E-01 -4.85128078E-16  3.22707207E-17  4.69165754E-01
 -1.01789698E-02 -3.01473852E-34 -2.50624074E-17  7.70486787E-02 -9.20025184E-39
 -1.19353201E-01  1.22196686E-02 -1.19353201E-01  1.22196686E-02  2.94501229E-16
  1.51477136E-16  5.77057836E-01  8.15514239E-17  5.40596917E-16  3.04196926E-16
  5.77057836E-01  1.07455254E-16  4.46154812E-16  3.08902191E-16  0.00000000E+00
 -1.55000667E-16 -2.15202737E-18  8.64061504E-23  4.81626948E-17  1.10232176E-16
 -2.23647552E-16 -9.36255094E-17  2.23952472E-16  9.04984783E-17  7.04320615E-17
  3.71794071E-01 -2.37805857E-16  2.05025886E-16  1.24632135E-16  2.61844932E-01
 -1.22835269E-16 -1.75076115E-17  2.07075254E-16  7.71569925E-01  8.77193847E-16
 -4.04443856E-19 -1.81983420E-01  2.61085026E-02  1.81983420E-01 -2.61085026E-02
  3.15893995E-01  1.46468835E-01 -1.33065838E-17 -3.17719327E-16 -2.83268783E-01
  4.15160948E-02  1.48495688E-17 -4.72993607E-16 -1.70028837E-01 -1.04236456E-01
 -3.78195859E-31 -8.60443103E-16  7.89007274E-01  2.95465515E-33 -1.63295414E-01
 -1.62743978E-02 -1.63295414E-01 -1.62743978E-02 -5.86699879E-16 -1.94856467E-16
 -4.96839318E-16 -1.58878029E-16  2.02736103E-16  1.13878702E-17 -5.09699174E-16
  3.29357135E-17  1.41841441E-16  9.91385951E-01 -2.99760217E-15 -8.16508468E-17
  1.30972884E-01  3.81639165E-17  7.24183019E-17  1.89633706E-16  5.75448936E-17
  1.32032596E-16 -1.48814957E-19 -2.23316938E-17 -8.25726340E-17  4.83151405E-16
  3.46729218E-18  4.78926249E-17  8.46201253E-17 -4.25712544E-16 -1.80188971E-17
  2.74667063E-15  9.99745759E-01 -4.27985915E-16  3.57696225E-16 -2.25481319E-02
 -8.32034355E-17  1.67666044E-17  6.58153076E-17 -4.66861543E-17 -1.95880234E-32
 -2.71647456E-30  1.29016799E-17  3.37083419E-17  4.56880336E-31  5.86821241E-30
 -1.28804234E-17 -2.19481171E-17 -2.14681081E-30  2.31527533E-17  2.25481319E-02
 -4.48733220E-17  3.05873092E-18  9.99745759E-01 -5.83177734E-17  7.12251629E-17
  5.83177734E-17 -7.12251629E-17  8.46564390E-01  1.09580183E-01 -8.39513415E-17
 -3.49265403E-17 -1.82140862E-01 -9.90599974E-02 -3.37657817E-16  2.06138853E-17
 -4.64414193E-02  5.58675926E-02 -2.48545899E-30  1.60792325E-16 -4.22884072E-01
  3.26216493E-32  1.53745747E-02 -1.73583623E-01  1.53745747E-02 -1.73583623E-01
 -4.03283660E-15  6.24809024E-15 -2.69242281E-16  9.77582480E-01 -6.67087868E-15
  1.96325667E-15  2.83024204E-16 -3.67265104E-01  2.68178536E-15  3.45469975E-17
 -5.83964829E-16 -3.88658620E-01 -2.32039806E-15 -3.38530335E-17 -1.35912137E-01
 -3.23325175E-01  1.35912137E-01  3.23325175E-01  4.25677672E-01 -6.64752309E-01
 -3.39857333E-16  9.50397551E-15  7.07377863E-01 -2.12328485E-01  2.64608812E-16
 -3.52107704E-15 -2.78763464E-01 -2.84277950E-02  1.97171531E-24 -3.44152432E-15
  2.15181309E-01 -4.44702104E-26  1.17365301E-01  2.98648100E-01  1.17365301E-01
  2.98648100E-01  1.27954153E-16 -6.53893567E-16  1.00152416E+00  5.76054382E-16
 -1.26080264E-16 -6.04946335E-17 -1.00152416E+00 -3.92136433E-16 -8.65094581E-17
  1.19919685E-16  2.45700865E-17 -2.02745382E-17 -2.13688837E-16  6.28994214E-16
 -5.00925053E-16  3.85202750E-16 -6.97485745E-16  1.09282124E-15  1.73928222E-01
 -7.88921240E-01 -4.90638727E-16 -4.48015719E-18 -7.18841665E-01  2.21751494E-01
  8.10023572E-16 -6.61987595E-18  8.86674979E-01  4.73234577E-03  7.18261134E-23
 -4.57655025E-16 -3.58210110E-02 -1.61995663E-24 -1.23816322E-01  4.03787724E-01
 -1.23816322E-01  4.03787724E-01  6.37476142E-02 -2.71729300E-01  1.22817184E-15
  3.26376588E-16 -2.57814251E-02  1.58874362E-01 -8.08415174E-16 -8.89079203E-18
  5.75308467E-01 -7.21345329E-02 -2.99992030E-20 -7.24163459E-16  5.46015025E-01
  6.76598005E-22  1.08671698E+00 -6.19544299E-01  1.08671698E+00 -6.19544299E-01
  9.56718679E-17 -4.67396003E-16 -4.75799010E-16 -3.73804382E-02 -2.18816538E-16
  6.39436457E-17  7.37061726E-16 -7.08252621E-01  5.72685028E-16  2.60231494E-16
 -6.41249393E-16  8.80666428E-01  4.77888394E-16 -1.90265913E-16  1.21933106E+00
 -6.96123288E-01 -1.21933106E+00  6.96123288E-01  1.54189416E-16  3.31394088E-16
  1.98067978E-17 -5.31630969E-01  3.93897894E-16 -2.11789738E-15  9.70684440E-17
  1.84650475E+00  7.02189415E-16 -1.14781937E-16  7.77184746E-17 -3.68873890E-01
  4.79775628E-16  1.22530744E-16 -2.17462769E-01 -1.53930513E+00  2.17462769E-01
  1.53930513E+00 -9.70852153E-03 -1.45199034E+00 -3.74082030E-16 -3.00602965E-16
  2.25473471E-01  3.11415411E+00 -4.53591368E-16  1.46028970E-15 -1.17197327E+00
  4.36782995E-02 -2.44053114E-16 -4.36685269E-16 -3.30618455E-01  5.50434124E-18
 -5.65882864E-01 -9.72450955E-01 -5.65882864E-01 -9.72450955E-01
Total SCF Density                          R   N=         171
  2.08471727E+00 -1.81087309E-01  4.99433597E-01  2.30649763E-16 -7.24572197E-16
  8.17580640E-01  1.17824730E-15 -1.45921557E-15 -2.56599479E-16  5.13702850E-01
 -4.19595337E-02  1.04512180E-01  1.16384361E-16  9.80983038E-16  6.29612237E-01
 -2.67510539E-01  5.60282989E-01 -2.90751678E-15  1.01829950E-15  2.22808592E-01
  6.48888880E-01 -1.44524041E-16  3.02014283E-17  6.54377823E-01 -6.25021085E-17
 -3.75684155E-17 -1.68408030E-15  5.23753027E-01  2.30265213E-16 -1.42093972E-15
 -2.52442838E-16  3.12577595E-01  5.45097248E-16  5.34331798E-17 -1.15114026E-16
  1.90197023E-01 -2.91450452E-02  8.64919352E-02  1.18138974E-15 -3.06067540E-16
  4.61326511E-01  1.73853765E-01  8.62496264E-16 -2.36727044E-16  3.38238169E-01
  2.19311152E-03 -6.19190380E-03 -2.95444148E-16  3.67107671E-17 -3.99370654E-02
 -1.36484057E-02 -2.27586611E-16  2.52527867E-17 -2.92542989E-02  2.53370099E-03
  2.11184930E-17 -4.41175164E-17 -4.33480077E-02 -2.11013118E-16  2.27252249E-17
  6.94676655E-17 -3.46950178E-02 -1.23290931E-16 -4.32510603E-17  1.37516888E-17
  2.29830511E-03 -1.42737154E-16  1.60734675E-16 -6.52888483E-18 -5.20784424E-02
 -1.21258498E-16 -9.25327179E-17 -1.97101500E-17 -3.16886587E-02  1.53391687E-17
 -2.32059130E-18  2.31176029E-17  5.27963621E-03  6.47400883E-03 -1.26471552E-02
  1.40406926E-16  1.90179261E-17  1.06495010E-02 -1.19408944E-02  9.11682911E-17
  2.57114594E-17  7.51167712E-03 -6.88894418E-04 -4.34065157E-18 -2.80632038E-18
  6.13088993E-04  7.25449273E-17 -1.60367713E-16  3.15623327E-16  2.91662628E-16
  2.11508217E-17 -1.70868966E-16  2.52619613E-16  1.77470697E-16  1.21651841E-17
 -1.49259097E-18 -1.67343033E-17 -2.95683300E-17  5.27237576E-18  3.43967787E-31
 -3.50761515E-02  7.29581962E-02  4.13497526E-16  2.33339095E-01 -1.81170413E-01
  4.80397956E-02  5.69045457E-16  1.41982030E-01 -1.30652944E-01  1.15868739E-02
 -1.50949258E-16 -2.36555757E-02 -6.15487926E-03  9.12988118E-17  1.80190036E-01
  1.82313075E-02 -3.42780143E-02  1.65536850E-15  1.14026342E-01 -8.49659240E-02
 -5.21332640E-02  1.34755623E-15  6.93826789E-02 -6.26571674E-02  5.37037367E-03
 -1.37860873E-16 -1.15598236E-02 -8.28742505E-04  6.87824637E-17  7.19054049E-02
  3.76345435E-02 -3.50761515E-02  7.29581962E-02  5.58739763E-17 -2.33339095E-01
 -1.81170413E-01  4.80397956E-02  1.53012696E-16 -1.41982030E-01 -1.30652944E-01
  1.15868739E-02  7.20682152E-17  2.36555757E-02 -6.15487926E-03 -1.73664849E-16
 -3.17890628E-02 -3.16828995E-02  1.80190036E-01  1.82313075E-02 -3.42780143E-02
  2.31325416E-15 -1.14026342E-01 -8.49659240E-02 -5.21332640E-02  1.81068874E-15
 -6.93826789E-02 -6.26571674E-02  5.37037367E-03 -7.30252115E-17  1.15598236E-02
 -8.28742505E-04 -6.06979265E-17 -3.16828995E-02 -1.29861870E-02  7.19054049E-02
  3.76345435E-02
Total CI Density                           R   N=         171
  2.08436642E+00 -1.82070167E-01  5.18249011E-01  1.94838523E-16 -7.02645407E-16
  8.10203631E-01  1.18043855E-15 -1.52749206E-15 -2.58398014E-16  5.36044827E-01
 -3.93429452E-02  9.26203569E-02  8.41678266E-17  1.03866202E-15  6.38221418E-01
 -2.64040070E-01  5.38740739E-01 -2.51134656E-15  1.16768906E-15  2.25530893E-01
  6.65835012E-01 -1.56314151E-16  1.00755682E-16  6.33022743E-01 -4.66978175E-17
  2.18549973E-17 -1.55657124E-15  5.42973834E-01  2.40423679E-16 -1.44318058E-15
 -2.15371741E-16  2.94348191E-01  3.31660701E-16  1.05740329E-16 -1.26079680E-16
  1.75433502E-01 -3.12995062E-02  8.30407634E-02  1.12564412E-15 -4.80004200E-16
  4.37825722E-01  1.93477140E-01  7.24784240E-16 -3.43233180E-16  3.30076079E-01
  2.28408493E-03 -5.91517624E-03 -2.92345658E-16  1.59918336E-17 -3.88379666E-02
 -1.49578349E-02 -1.96503892E-16  5.28091876E-18 -2.91671787E-02  6.89742899E-03
  2.10260783E-17 -4.08895309E-17 -4.22716692E-02 -2.05344254E-16  2.66994152E-17
  4.61159858E-17 -3.58863411E-02 -1.04126980E-16 -2.74928483E-17  1.22832043E-17
  6.80654966E-03 -1.39775373E-16  1.50643205E-16 -9.21989421E-18 -4.68656394E-02
 -7.04766119E-17 -9.42625958E-17 -2.17147260E-17 -2.64514539E-02  2.69081136E-17
  1.46948020E-17  1.85455060E-17  8.47594702E-03  6.57624725E-03 -1.31001954E-02
  1.38875096E-16 -1.49269779E-17  7.23290372E-03 -1.22707143E-02  8.52900162E-17
 -4.71725451E-18  3.92833689E-03 -5.62029221E-04 -1.31030206E-17 -5.88256500E-18
  4.76637537E-03  7.03015435E-17 -1.60381618E-16  3.08480178E-16  2.74520378E-16
  2.95854635E-17 -1.56706249E-16  2.26433249E-16  1.79334431E-16  1.39200008E-17
 -6.98289039E-19 -1.33283440E-17 -3.85540648E-17  1.00163987E-17  4.60316724E-03
 -3.39340900E-02  7.04028328E-02  3.74134776E-16  2.26695652E-01 -1.76731367E-01
  3.88098830E-02  5.00918173E-16  1.33916095E-01 -1.27437612E-01  1.15157919E-02
 -1.35138519E-16 -2.22414873E-02 -6.22644004E-03  8.61759923E-17  1.93303956E-01
  1.78376607E-02 -3.23014859E-02  1.43797058E-15  1.16409188E-01 -8.80883997E-02
 -5.70944593E-02  1.23229056E-15  6.96167759E-02 -6.82372940E-02  5.98473173E-03
 -1.25614756E-16 -1.11837051E-02 -6.71063278E-04  5.58302450E-17  8.22303219E-02
  4.77683926E-02 -3.39340900E-02  7.04028328E-02  5.58856451E-17 -2.26695652E-01
 -1.76731367E-01  3.88098830E-02  1.17039456E-16 -1.33916095E-01 -1.27437612E-01
  1.15157919E-02  9.37712765E-17  2.22414873E-02 -6.22644004E-03 -1.64939122E-16
 -3.15641234E-02 -3.30493638E-02  1.93303956E-01  1.78376607E-02 -3.23014859E-02
  2.01353595E-15 -1.16409188E-01 -8.80883997E-02 -5.70944593E-02  1.60571100E-15
 -6.96167759E-02 -6.82372940E-02  5.98473173E-03 -5.17577668E-17  1.11837051E-02
 -6.71063278E-04 -5.16894062E-17 -3.30493638E-02 -1.61046127E-02  8.22303219E-02
  4.77683926E-02
Mulliken Charges                           R   N=           3
 -8.51324247E-01  4.25662124E-01  4.25662124E-01
ONIOM Charges                              I   N=          16
           0           0           0           0           0           0
           0           0           0           0           0           0
           0           0           0           0
ONIOM Multiplicities                       I   N=          16
           1           0           0           0           0           0
           0           0           0           0           0           0
           0           0           0           0
Atom Layers                                I   N=           3
           1           1           1
Atom Modifiers                             I   N=           3
           0           0           0
Force Field                                I                0
Atom Modified Types                        C   N=           3
                                    
Int Atom Modified Types                    I   N=           3
           0           0           0
Link Atoms                                 I   N=           3
           0           0           0
Atom Modified MM Charges                   R   N=           3
  0.00000000E+00  0.00000000E+00  0.00000000E+00
Link Distances                             R   N=          12
  0.00000000E+00  0.00000000E+00  0.00000000E+00  0.00000000E+00  0.00000000E+00
  0.00000000E+00  0.00000000E+00  0.00000000E+00  0.00000000E+00  0.00000000E+00
  0.00000000E+00  0.00000000E+00
Cartesian Gradient                         R   N=           9
  0.00000000E+00  0.00000000E+00  0.00000000E+00  0.00000000E+00  0.00000000E+00
  0.00000000E+00  0.00000000E+00  0.00000000E+00  0.00000000E+00
Nonadiabatic coupling                      R   N=           9
  0.00000000E+00  0.00000000E+00  0.00000000E+00  0.00000000E+00  0.00000000E+00
  0.00000000E+00  0.00000000E+00  0.00000000E+00  0.00000000E+00
Dipole Moment                              R   N=           3
 -1.82539549E-15  4.69751914E-16 -8.60408717E-01
Quadrupole Moment                          R   N=           6
 -1.07427746E+00  1.19608431E+00 -1.21806849E-01  8.18076765E-16  4.77191528E-16
  1.86385498E-15
QEq coupling tensors                       R   N=          18
  1.78684991E+00 -1.56335494E-16 -1.52262399E+00  5.12051657E-16  1.07358842E-14
 -2.64225915E-01  2.81217592E-01  1.52326783E-16 -2.31521495E-01 -1.67222138E-16
  3.42612082E-01 -4.96960966E-02  2.81217592E-01 -1.25075168E-16 -2.31521495E-01
 -1.20741344E-16 -3.42612082E-01 -4.96960966E-02
ClPar MaxAn                                I              200
ClPar NIntPar                              I                4
ClPar NRealPar                             I               16
ClPar NBits                                I               30
ClPar LenBitVec                            I                1
ClPar Read BitMap                          I   N=         200
           0           0           0           0           0           0
           0           0           0           0           0           0
           0           0           0           0           0           0
           0           0           0           0           0           0
           0           0           0           0           0           0
           0           0           0           0           0           0