 Entering Gaussian System, Link 0=/opt/g09E01ES64L/g09/g09
 Initial command:
 /opt/g09E01ES64L/g09/l1.exe "/home/scratch/Gau-7781.inp" -scrdir="/home/scratch/"
 Entering Link 1 = /opt/g09E01ES64L/g09/l1.exe PID=      7782.
  
 Copyright (c) 1988,1990,1992,1993,1995,1998,2003,2009,2015,
            Gaussian, Inc.  All Rights Reserved.
  
 This is part of the Gaussian(R) 09 program.  It is based on
 the Gaussian(R) 03 system (copyright 2003, Gaussian, Inc.),
 the Gaussian(R) 98 system (copyright 1998, Gaussian, Inc.),
 the Gaussian(R) 94 system (copyright 1995, Gaussian, Inc.),
 the Gaussian 92(TM) system (copyright 1992, Gaussian, Inc.),
 the Gaussian 90(TM) system (copyright 1990, Gaussian, Inc.),
 the Gaussian 88(TM) system (copyright 1988, Gaussian, Inc.),
 the Gaussian 86(TM) system (copyright 1986, Carnegie Mellon
 University), and the Gaussian 82(TM) system (copyright 1983,
 Carnegie Mellon University). Gaussian is a federally registered
 trademark of Gaussian, Inc.
  
 This software contains proprietary and confidential information,
 including trade secrets, belonging to Gaussian, Inc.
  
 This software is provided under written license and may be
 used, copied, transmitted, or stored only in accord with that
 written license.
  
 The following legend is applicable only to US Government
 contracts under FAR:
  
                    RESTRICTED RIGHTS LEGEND
  
 Use, reproduction and disclosure by the US Government is
 subject to restrictions as set forth in subparagraphs (a)
 and (c) of the Commercial Computer Software - Restricted
 Rights clause in FAR 52.227-19.
  
 Gaussian, Inc.
 340 Quinnipiac St., Bldg. 40, Wallingford CT 06492
  
  
 ---------------------------------------------------------------
 Warning -- This program may not be used in any manner that
 competes with the business of Gaussian, Inc. or will provide
 assistance to any competitor of Gaussian, Inc.  The licensee
 of this program is prohibited from giving any competitor of
 Gaussian, Inc. access to this program.  By using this program,
 the user acknowledges that Gaussian, Inc. is engaged in the
 business of creating and licensing software in the field of
 computational chemistry and represents and warrants to the
 licensee that it is not a competitor of Gaussian, Inc. and that
 it will not use this program in any manner prohibited above.
 ---------------------------------------------------------------
  

 Cite this work as:
 Gaussian 09, Revision E.01,
 M. J. Frisch, G. W. Trucks, H. B. Schlegel, G. E. Scuseria, 
 M. A. Robb, J. R. Cheeseman, G. Scalmani, V. Barone, B. Mennucci, 
 G. A. Petersson, H. Nakatsuji, M. Caricato, X. Li, H. P. Hratchian, 
 A. F. Izmaylov, J. Bloino, G. Zheng, J. L. Sonnenberg, M. Hada, 
 M. Ehara, K. Toyota, R. Fukuda, J. Hasegawa, M. Ishida, T. Nakajima, 
 Y. Honda, O. Kitao, H. Nakai, T. Vreven, J. A. Montgomery, Jr., 
 J. E. Peralta, F. Ogliaro, M. Bearpark, J. J. Heyd, E. Brothers, 
 K. N. Kudin, V. N. Staroverov, T. Keith, R. Kobayashi, J. Normand, 
 K. Raghavachari, A. Rendell, J. C. Burant, S. S. Iyengar, J. Tomasi, 
 M. Cossi, N. Rega, J. M. Millam, M. Klene, J. E. Knox, J. B. Cross, 
 V. Bakken, C. Adamo, J. Jaramillo, R. Gomperts, R. E. Stratmann, 
 O. Yazyev, A. J. Austin, R. Cammi, C. Pomelli, J. W. Ochterski, 
 R. L. Martin, K. Morokuma, V. G. Zakrzewski, G. A. Voth, 
 P. Salvador, J. J. Dannenberg, S. Dapprich, A. D. Daniels, 
 O. Farkas, J. B. Foresman, J. V. Ortiz, J. Cioslowski, 
 and D. J. Fox, Gaussian, Inc., Wallingford CT, 2013.
 
 ******************************************
 Gaussian 09:  ES64L-G09RevE.01 30-Nov-2015
                 3-Feb-2021 
 ******************************************
 %chk=H2Onodiff_N-1.chk
 %mem=20GB
 %nprocshared=18
 Will use up to   18 processors via shared memory.
 ---------------------------
 # ub3lyp/6-31g(d) NoSymm 5D
 ---------------------------
 1/38=1/1;
 2/12=2,15=1,17=6,18=5,40=1/2;
 3/5=1,6=6,7=1,8=1,11=2,16=1,25=1,30=1,74=-5,116=2/1,2,3;
 4//1;
 5/5=2,38=5/2;
 6/7=2,8=2,9=2,10=2,28=1/1;
 99/5=1,9=1/99;
 ----------------------------------------------------------------------
 Calculo de punto sencillo de H2O^+1 a nivel de teoria UB3LYP/6-31G(d),
  optimizada geometricamente a nivel de teoria B3LYP/6-311G(d,p)
 ----------------------------------------------------------------------
 Symbolic Z-matrix:
 Charge =  1 Multiplicity = 2
 O                     0.        0.        0.11867 
 H                     0.        0.75694  -0.47466 
 H                     0.       -0.75694  -0.47466 
 
                          Input orientation:                          
 ---------------------------------------------------------------------
 Center     Atomic      Atomic             Coordinates (Angstroms)
 Number     Number       Type             X           Y           Z
 ---------------------------------------------------------------------
      1          8           0        0.000000    0.000000    0.118665
      2          1           0        0.000000    0.756944   -0.474661
      3          1           0        0.000000   -0.756944   -0.474661
 ---------------------------------------------------------------------
                    Distance matrix (angstroms):
                    1          2          3
     1  O    0.000000
     2  H    0.961769   0.000000
     3  H    0.961769   1.513888   0.000000
 Symmetry turned off by external request.
 Stoichiometry    H2O(1+,2)
 Framework group  C2V[C2(O),SGV(H2)]
 Deg. of freedom     2
 Full point group                 C2V     NOp   4
 Rotational constants (GHZ):    801.9747612    437.5972212    283.1154075
 Standard basis: 6-31G(d) (5D, 7F)
    18 basis functions,    36 primitive gaussians,    19 cartesian basis functions
     5 alpha electrons        4 beta electrons
       nuclear repulsion energy         9.1529448261 Hartrees.
 NAtoms=    3 NActive=    3 NUniq=    3 SFac= 1.00D+00 NAtFMM=   60 NAOKFM=F Big=F
 Integral buffers will be    131072 words long.
 Raffenetti 2 integral format.
 Two-electron integral symmetry is turned off.
 One-electron integrals computed using PRISM.
 NBasis=    18 RedAO= T EigKep=  6.30D-02  NBF=    18
 NBsUse=    18 1.00D-06 EigRej= -1.00D+00 NBFU=    18
 ExpMin= 1.61D-01 ExpMax= 5.48D+03 ExpMxC= 8.25D+02 IAcc=1 IRadAn=         1 AccDes= 0.00D+00
 Harris functional with IExCor=  402 and IRadAn=       1 diagonalized for initial guess.
 HarFok:  IExCor=  402 AccDes= 0.00D+00 IRadAn=         1 IDoV= 1 UseB2=F ITyADJ=14
 ICtDFT=  3500011 ScaDFX=  1.000000  1.000000  1.000000  1.000000
 FoFCou: FMM=F IPFlag=           0 FMFlag=      100000 FMFlg1=           0
         NFxFlg=           0 DoJE=T BraDBF=F KetDBF=T FulRan=T
         wScrn=  0.000000 ICntrl=     500 IOpCl=  0 I1Cent=   200000004 NGrid=           0
         NMat0=    1 NMatS0=      1 NMatT0=    0 NMatD0=    1 NMtDS0=    0 NMtDT0=    0
 Symmetry not used in FoFCou.
 Initial guess <Sx>= 0.0000 <Sy>= 0.0000 <Sz>= 0.5000 <S**2>= 0.7500 S= 0.5000
 Keep R1 and R2 ints in memory in canonical form, NReq=909013.
 Requested convergence on RMS density matrix=1.00D-08 within 128 cycles.
 Requested convergence on MAX density matrix=1.00D-06.
 Requested convergence on             energy=1.00D-06.
 No special actions if energy rises.
 Integral accuracy reduced to 1.0D-05 until final iterations.
 Initial convergence to 1.0D-05 achieved.  Increase integral accuracy.
 SCF Done:  E(UB3LYP) =  -75.9518537768     A.U. after   10 cycles
            NFock= 10  Conv=0.98D-08     -V/T= 2.0033
 <Sx>= 0.0000 <Sy>= 0.0000 <Sz>= 0.5000 <S**2>= 0.7524 S= 0.5012
 <L.S>= 0.000000000000E+00
 Annihilation of the first spin contaminant:
 S**2 before annihilation     0.7524,   after     0.7500

 **********************************************************************

            Population analysis using the SCF density.

 **********************************************************************

 Alpha  occ. eigenvalues --  -19.71082  -1.54259  -1.01248  -0.88345  -0.87630
 Alpha virt. eigenvalues --   -0.27929  -0.19988   0.38060   0.40169   0.42992
 Alpha virt. eigenvalues --    0.50763   0.64073   0.91854   1.21690   1.23988
 Alpha virt. eigenvalues --    1.25350   1.79690   2.12523
  Beta  occ. eigenvalues --  -19.68343  -1.47137  -0.99075  -0.84537
  Beta virt. eigenvalues --   -0.61674  -0.26863  -0.19392   0.37922   0.44589
  Beta virt. eigenvalues --    0.49754   0.52664   0.65565   0.96025   1.26445
  Beta virt. eigenvalues --    1.28248   1.31804   1.85533   2.13576
          Condensed to atoms (all electrons):
               1          2          3
     1  O    7.671723   0.228959   0.228959
     2  H    0.228959   0.215085  -0.008865
     3  H    0.228959  -0.008865   0.215085
          Atomic-Atomic Spin Densities.
               1          2          3
     1  O    1.069553  -0.009496  -0.009496
     2  H   -0.009496  -0.017302   0.001516
     3  H   -0.009496   0.001516  -0.017302
 Mulliken charges and spin densities:
               1          2
     1  O   -0.129642   1.050562
     2  H    0.564821  -0.025281
     3  H    0.564821  -0.025281
 Sum of Mulliken charges =   1.00000   1.00000
 Mulliken charges and spin densities with hydrogens summed into heavy atoms:
               1          2
     1  O    1.000000   1.000000
 Electronic spatial extent (au):  <R**2>=             14.4958
 Charge=              1.0000 electrons
 Dipole moment (field-independent basis, Debye):
    X=              0.0000    Y=              0.0000    Z=             -2.3054  Tot=              2.3054
 Quadrupole moment (field-independent basis, Debye-Ang):
   XX=             -4.7626   YY=             -2.2303   ZZ=             -4.2949
   XY=             -0.0000   XZ=              0.0000   YZ=             -0.0000
 Traceless Quadrupole moment (field-independent basis, Debye-Ang):
   XX=             -1.0000   YY=              1.5323   ZZ=             -0.5323
   XY=             -0.0000   XZ=              0.0000   YZ=             -0.0000
 Octapole moment (field-independent basis, Debye-Ang**2):
  XXX=              0.0000  YYY=              0.0000  ZZZ=             -1.6039  XYY=             -0.0000
  XXY=              0.0000  XXZ=             -0.2717  XZZ=              0.0000  YZZ=              0.0000
  YYZ=             -1.7773  XYZ=              0.0000
 Hexadecapole moment (field-independent basis, Debye-Ang**3):
 XXXX=             -2.7155 YYYY=             -2.9258 ZZZZ=             -4.2522 XXXY=             -0.0000
 XXXZ=              0.0000 YYYX=             -0.0000 YYYZ=             -0.0000 ZZZX=              0.0000
 ZZZY=             -0.0000 XXYY=             -1.2654 XXZZ=             -1.2105 YYZZ=             -0.7776
 XXYZ=             -0.0000 YYXZ=              0.0000 ZZXY=             -0.0000
 N-N= 9.152944826069D+00 E-N=-1.936873887045D+02  KE= 7.570221478131D+01
                          Isotropic Fermi Contact Couplings
        Atom                 a.u.       MegaHertz       Gauss      10(-4) cm-1
     1  O(17)              0.19593    -118.76915     -42.37978     -39.61712
     2  H(1)              -0.01528     -68.31148     -24.37524     -22.78626
     3  H(1)              -0.01528     -68.31148     -24.37524     -22.78626
 --------------------------------------------------------
       Center         ----  Spin Dipole Couplings  ----
                      3XX-RR        3YY-RR        3ZZ-RR
 --------------------------------------------------------
     1   Atom        3.919607     -1.934568     -1.985039
     2   Atom       -0.051210      0.070001     -0.018791
     3   Atom       -0.051210      0.070001     -0.018791
 --------------------------------------------------------
                        XY            XZ            YZ
 --------------------------------------------------------
     1   Atom        0.000000      0.000000      0.000000
     2   Atom        0.000000     -0.000000     -0.154907
     3   Atom       -0.000000     -0.000000      0.154907
 --------------------------------------------------------


 ---------------------------------------------------------------------------------
              Anisotropic Spin Dipole Couplings in Principal Axis System
 ---------------------------------------------------------------------------------

       Atom             a.u.   MegaHertz   Gauss  10(-4) cm-1        Axes

              Baa    -1.9850   143.636    51.253    47.912 -0.0000 -0.0000  1.0000
     1 O(17)  Bbb    -1.9346   139.984    49.950    46.694  0.0000  1.0000  0.0000
              Bcc     3.9196  -283.620  -101.203   -94.605  1.0000 -0.0000  0.0000
 
              Baa    -0.1355   -72.317   -25.804   -24.122 -0.0000  0.6019  0.7986
     2 H(1)   Bbb    -0.0512   -27.323    -9.750    -9.114  1.0000 -0.0000  0.0000
              Bcc     0.1867    99.640    35.554    33.236  0.0000  0.7986 -0.6019
 
              Baa    -0.1355   -72.317   -25.804   -24.122 -0.0000 -0.6019  0.7986
     3 H(1)   Bbb    -0.0512   -27.323    -9.750    -9.114  1.0000  0.0000  0.0000
              Bcc     0.1867    99.640    35.554    33.236 -0.0000  0.7986  0.6019
 

 ---------------------------------------------------------------------------------

 1\1\GINC-LOCALHOST\SP\UB3LYP\6-31G(d)\H2O1(1+,2)\ROOT\03-Feb-2021\0\\#
  ub3lyp/6-31g(d) NoSymm 5D\\Calculo de punto sencillo de H2O^+1 a nive
 l de teoria UB3LYP/6-31G(d), optimizada geometricamente a nivel de teo
 ria B3LYP/6-311G(d,p)\\1,2\O,0,0.,0.,0.118665\H,0,0.,0.756944,-0.47466
 1\H,0,0.,-0.756944,-0.474661\\Version=ES64L-G09RevE.01\HF=-75.9518538\
 S2=0.752356\S2-1=0.\S2A=0.750003\RMSD=9.777e-09\Dipole=0.,0.,-0.907028
 4\Quadrupole=-0.7434793,1.1392137,-0.3957343,0.,0.,0.\PG=C02V [C2(O1),
 SGV(H2)]\\@


 FESTINA LENTE!
     - IMPERATOR AUGUSTUS 
 Job cpu time:       0 days  0 hours  0 minutes 19.8 seconds.
 File lengths (MBytes):  RWF=      5 Int=      0 D2E=      0 Chk=      1 Scr=      1
 Normal termination of Gaussian 09 at Wed Feb  3 13:31:55 2021.
