Calculo de punto sencillo de H2O^+1 a nivel de teoria UMP2/6-31G(d), opt
SP        UMP2-FC                                                     6-31G(d)            
Number of atoms                            I                3
Info1-9                                    I   N=           9
          12          12           0           0           0         110
           1           2           1
Full Title                                 C   N=          11
Calculo de punto sencillo de H2O^+1 a nivel de teoria UMP2/6
-31G(d), optimizada geometricamente a nivel de teoria B3LYP/
6-311G(d,p) 
Route                                      C   N=           4
# UMP2/6-31g(d) NoSymm 5D Density=Current       
Charge                                     I                1
Multiplicity                               I                2
Number of electrons                        I                9
Number of alpha electrons                  I                5
Number of beta electrons                   I                4
Number of basis functions                  I               18
Number of independent functions            I               18
Number of point charges in /Mol/           I                0
Number of translation vectors              I                0
Atomic numbers                             I   N=           3
           8           1           1
Nuclear charges                            R   N=           3
  8.00000000E+00  1.00000000E+00  1.00000000E+00
Current cartesian coordinates              R   N=           9
  0.00000000E+00  0.00000000E+00  2.24244351E-01  0.00000000E+00  1.43041685E+00
 -8.96979292E-01  0.00000000E+00 -1.43041685E+00 -8.96979292E-01
Number of symbols in /Mol/                 I                0
Force Field                                I                0
Atom Types                                 C   N=           3
                                    
Int Atom Types                             I   N=           3
           0           0           0
MM charges                                 R   N=           3
  0.00000000E+00  0.00000000E+00  0.00000000E+00
Integer atomic weights                     I   N=           3
          16           1           1
Real atomic weights                        R   N=           3
  1.59949146E+01  1.00782504E+00  1.00782504E+00
Atom fragment info                         I   N=           3
           0           0           0
Atom residue num                           I   N=           3
           0           0           0
Nuclear spins                              I   N=           3
           0           1           1
Nuclear ZEff                               R   N=           3
 -5.60000000E+00 -1.00000000E+00 -1.00000000E+00
Nuclear ZNuc                               R   N=           3
  8.00000000E+00  1.00000000E+00  1.00000000E+00
Nuclear QMom                               R   N=           3
  0.00000000E+00  0.00000000E+00  0.00000000E+00
Nuclear GFac                               R   N=           3
  0.00000000E+00  2.79284600E+00  2.79284600E+00
MicOpt                                     I   N=           3
          -1          -1          -1
Number of residues                         I                0
Number of secondary structures             I                0
Number of contracted shells                I                8
Number of primitive shells                 I               19
Pure/Cartesian d shells                    I                0
Pure/Cartesian f shells                    I                0
Highest angular momentum                   I                2
Largest degree of contraction              I                6
Shell types                                I   N=           8
           0          -1          -1          -2           0           0
           0           0
Number of primitives per shell             I   N=           8
           6           3           1           1           3           1
           3           1
Shell to atom map                          I   N=           8
           1           1           1           1           2           2
           3           3
Primitive exponents                        R   N=          19
  5.48467166E+03  8.25234946E+02  1.88046958E+02  5.29645000E+01  1.68975704E+01
  5.79963534E+00  1.55396162E+01  3.59993359E+00  1.01376175E+00  2.70005823E-01
  8.00000000E-01  1.87311370E+01  2.82539436E+00  6.40121692E-01  1.61277759E-01
  1.87311370E+01  2.82539436E+00  6.40121692E-01  1.61277759E-01
Contraction coefficients                   R   N=          19
  1.83107443E-03  1.39501722E-02  6.84450781E-02  2.32714336E-01  4.70192898E-01
  3.58520853E-01 -1.10777550E-01 -1.48026263E-01  1.13076702E+00  1.00000000E+00
  1.00000000E+00  3.34946043E-02  2.34726953E-01  8.13757326E-01  1.00000000E+00
  3.34946043E-02  2.34726953E-01  8.13757326E-01  1.00000000E+00
P(S=P) Contraction coefficients            R   N=          19
  0.00000000E+00  0.00000000E+00  0.00000000E+00  0.00000000E+00  0.00000000E+00
  0.00000000E+00  7.08742682E-02  3.39752839E-01  7.27158577E-01  1.00000000E+00
  0.00000000E+00  0.00000000E+00  0.00000000E+00  0.00000000E+00  0.00000000E+00
  0.00000000E+00  0.00000000E+00  0.00000000E+00  0.00000000E+00
Coordinates of each shell                  R   N=          24
  0.00000000E+00  0.00000000E+00  2.24244351E-01  0.00000000E+00  0.00000000E+00
  2.24244351E-01  0.00000000E+00  0.00000000E+00  2.24244351E-01  0.00000000E+00
  0.00000000E+00  2.24244351E-01  0.00000000E+00  1.43041685E+00 -8.96979292E-01
  0.00000000E+00  1.43041685E+00 -8.96979292E-01  0.00000000E+00 -1.43041685E+00
 -8.96979292E-01  0.00000000E+00 -1.43041685E+00 -8.96979292E-01
Num ILSW                                   I              100
ILSW                                       I   N=         100
           1           0           0           0           2           0
           0           0           0           0           0          -1
           5           0           0           0           0           0
           0           0           1           0           0           0
           1           1           0           0           0           0
           0           0      100000           0          -1           0
           0           0           0           0           0           0
           0           0           0           1           0           0
           0 -2000000000           1           0           0           0
           0           0           4          52           0           0
           0           0           0           0           0           0
           0           0           0           0           0           1
           0           0           0           0           0           0
           0           0           0           0           0           0
           0           0           0           0           0           0
           0           0           0           0           0           0
           0           0           0           0
Num RLSW                                   I               52
RLSW                                       R   N=          52
  1.00000000E+00  1.00000000E+00  1.00000000E+00  1.00000000E+00  1.00000000E+00
  0.00000000E+00  0.00000000E+00  1.00000000E+00  0.00000000E+00  0.00000000E+00
  0.00000000E+00  0.00000000E+00  1.00000000E+00  0.00000000E+00  0.00000000E+00
  0.00000000E+00  0.00000000E+00  1.00000000E+00  0.00000000E+00  0.00000000E+00
  0.00000000E+00  0.00000000E+00  1.00000000E+00  0.00000000E+00  0.00000000E+00
  0.00000000E+00  0.00000000E+00  1.00000000E+00  0.00000000E+00  0.00000000E+00
  0.00000000E+00  0.00000000E+00  1.00000000E+00  0.00000000E+00  0.00000000E+00
  0.00000000E+00  0.00000000E+00  0.00000000E+00  1.00000000E+00  1.00000000E+00
  0.00000000E+00  1.00000000E+00  0.00000000E+00  0.00000000E+00  0.00000000E+00
  0.00000000E+00  0.00000000E+00  0.00000000E+00  0.00000000E+00  0.00000000E+00
  0.00000000E+00  0.00000000E+00
MxBond                                     I                2
NBond                                      I   N=           3
           2           1           1
IBond                                      I   N=           6
           2           3           1           0           1           0
RBond                                      R   N=           6
  1.00000000E+00  1.00000000E+00  1.00000000E+00  0.00000000E+00  1.00000000E+00
  0.00000000E+00
Virial Ratio                               R      1.999040425605711E+00
SCF Energy                                 R     -7.561068185492617E+01
MP2 Energy                                 R     -7.574635519731920E+01
Total Energy                               R     -7.574635519731920E+01
PUHF Energy                                R     -7.561377656657184E+01
PMP2-0 Energy                              R     -7.574818913562810E+01
Post-SCF wavefunction norm                 R      1.016912614762768E+00
S**2                                       R      7.566775992991337E-01
S**2 after annihilation                    R      7.500264298880371E-01
S**2 corrected to first order              R      7.512238338359820E-01
RMS Density                                R      7.009147638172125E-09
Job Status                                 I                1
Nuclear derivative order                   I                0
External E-field                           R   N=          35
  0.00000000E+00  0.00000000E+00  0.00000000E+00  0.00000000E+00  0.00000000E+00
  0.00000000E+00  0.00000000E+00  0.00000000E+00  0.00000000E+00  0.00000000E+00
  0.00000000E+00  0.00000000E+00  0.00000000E+00  0.00000000E+00  0.00000000E+00
  0.00000000E+00  0.00000000E+00  0.00000000E+00  0.00000000E+00  0.00000000E+00
  0.00000000E+00  0.00000000E+00  0.00000000E+00  0.00000000E+00  0.00000000E+00
  0.00000000E+00  0.00000000E+00  0.00000000E+00  0.00000000E+00  0.00000000E+00
  0.00000000E+00  0.00000000E+00  0.00000000E+00  0.00000000E+00  0.00000000E+00
IOpCl                                      I                1
IROHF                                      I                0
Alpha Orbital Energies                     R   N=          18
 -2.11387832E+01 -1.91492949E+00 -1.21955395E+00 -1.13391115E+00 -1.10054015E+00
 -1.28443428E-01 -4.02306762E-02  6.11959159E-01  6.45108719E-01  7.07854386E-01
  7.48902038E-01  9.18640287E-01  1.17665564E+00  1.49589152E+00  1.52443750E+00
  1.53120540E+00  2.11368021E+00  2.46404816E+00
Beta Orbital Energies                      R   N=          18
 -2.10936985E+01 -1.75733232E+00 -1.18065618E+00 -1.04774717E+00 -3.16118509E-01
 -1.13073697E-01 -3.10331239E-02  6.08051605E-01  7.38038054E-01  7.78831865E-01
  8.41006125E-01  9.44425675E-01  1.22796985E+00  1.55668033E+00  1.59551076E+00
  1.62920811E+00  2.18931800E+00  2.47762236E+00
Alpha MO coefficients                      R   N=         324
  9.95532609E-01  2.33714961E-02 -9.77741429E-17 -4.23491642E-16 -1.73655270E-03
 -8.75817293E-03 -8.30815672E-17 -1.53718028E-16  1.98034242E-03 -1.31107392E-04
 -2.25728166E-18  3.17208746E-16  4.76272294E-04  1.28322862E-16  3.63319216E-04
  2.03302262E-03  3.63319216E-04  2.03302262E-03 -2.23829592E-01  5.30856634E-01
  3.97441171E-16  1.31135104E-15 -1.03843241E-01  4.87814275E-01  2.83430016E-16
  9.17414677E-17 -6.65036344E-02 -2.05241003E-03 -4.99663635E-17 -7.93420524E-18
 -1.79165493E-03 -1.05822312E-16  1.11502454E-01 -3.54799672E-02  1.11502454E-01
 -3.54799672E-02  4.66636789E-16 -1.00388909E-15  3.56264629E-15  5.92848066E-01
 -2.87016026E-15 -2.12966422E-15  1.98285744E-15  3.25664702E-01 -1.59860667E-15
  4.28372535E-16 -6.88151576E-16 -5.87834406E-02 -2.70599720E-16 -1.26749856E-16
  2.04119286E-01  1.73462946E-02 -2.04119286E-01 -1.73462946E-02 -1.03392735E-15
  2.96035948E-15  7.30574662E-01 -3.57336107E-15  1.02926755E-14  3.67515748E-15
  4.07631121E-01 -1.41068293E-16  6.41604798E-15 -7.48150767E-16 -3.72401471E-02
  1.58674210E-16  8.76098533E-16  3.04164445E-17 -2.84468411E-15 -2.59949109E-15
 -2.09476987E-15  6.92691701E-16 -6.29358589E-02  1.80876519E-01 -1.24257053E-14
  2.48707072E-15  6.35648055E-01  1.77461744E-01 -6.34122287E-15  1.98247205E-15
  3.71250596E-01 -4.43375430E-02  4.35489762E-16 -2.64247425E-16  1.43061449E-02
 -2.12285974E-16 -1.25832232E-01 -2.51371889E-02 -1.25832232E-01 -2.51371889E-02
 -8.36653939E-02  1.72744114E-01 -7.61527288E-17  4.18474569E-15 -2.35769868E-01
  1.04117185E+00 -8.93056896E-16  1.15109917E-14 -3.97290241E-01  8.22069845E-03
  4.46903536E-17 -1.10396098E-16  8.01451128E-03  1.27221524E-16 -1.14810418E-01
 -9.26337672E-01 -1.14810418E-01 -9.26337672E-01 -1.78644555E-15  1.57444936E-14
  4.38242058E-17 -3.63061675E-01 -4.76644676E-15 -3.04734307E-15 -8.44307167E-17
 -7.04175579E-01 -2.19633820E-15  1.27369923E-15 -1.22149837E-16  1.67407519E-03
  8.56997581E-16 -7.89616371E-17  1.41670524E-01  1.27555832E+00 -1.41670524E-01
 -1.27555832E+00  8.16603290E-16 -1.14684994E-14  1.96149594E-15 -9.99900976E-02
  2.43663514E-15  1.35739692E-14 -2.74044790E-15 -5.20219127E-01 -2.61320469E-15
  8.93630946E-16  1.29676867E-15 -2.24982751E-01  4.78502204E-16 -8.67352752E-17
  8.16030823E-01 -5.98607418E-01 -8.16030823E-01  5.98607418E-01 -5.48154543E-16
  5.24457927E-15 -8.95704536E-01  1.31141005E-15  1.41181695E-14 -2.08563687E-15
  1.08077212E+00 -4.06755785E-15 -1.33671631E-14  7.87188416E-16 -2.53320000E-02
 -7.45114129E-16 -5.79142099E-16  1.28879958E-15  3.92270321E-15 -3.34901318E-15
  1.83684314E-16 -4.01831201E-15  2.72017134E-02 -9.70815991E-02  9.88581140E-15
 -4.12873160E-15  6.84882766E-01  1.52812203E-01 -1.15422038E-14  8.20907734E-15
 -4.25043341E-01  1.37309610E-02 -1.65139199E-15  6.59659727E-16 -2.08152542E-01
  1.08062308E-15  6.85745956E-01 -5.48621753E-01  6.85745956E-01 -5.48621753E-01
  6.05744932E-02 -4.39550118E-01 -8.55909681E-15 -1.29245900E-14 -6.16141391E-01
  1.62756991E-01  1.06293310E-14  1.96660282E-14  1.10808711E+00 -2.50492207E-02
  6.32411357E-17  1.12157917E-16 -1.75619053E-01  2.10386823E-16  5.20309710E-01
 -1.28824237E-01  5.20309710E-01 -1.28824237E-01  1.04871764E-16 -2.27562756E-14
 -1.89109326E-15 -9.77669653E-01  9.71964080E-15  4.20118504E-14  2.43260833E-15
  1.62615285E+00 -2.59953478E-14 -3.87617090E-16 -2.99116478E-16 -7.58831941E-03
  5.55120939E-15 -1.14311381E-15  7.68792529E-02 -9.99002771E-01 -7.68792529E-02
  9.99002771E-01  5.86141589E-02 -1.58151860E+00 -1.14973125E-15  1.53050676E-14
  2.31776338E-01  2.53814098E+00  1.45764789E-15 -2.90338477E-14 -7.16009893E-01
  1.97329555E-02  2.49481985E-15  1.45837024E-15  2.69783226E-01  1.37976855E-15
 -1.77237844E-01 -6.85187880E-01 -1.77237844E-01 -6.85187880E-01 -8.26854590E-17
  1.88750100E-15  2.33153351E-15 -1.25888342E-15 -8.94680667E-16 -2.19103230E-15
  1.23793445E-16  1.75744831E-15 -3.48191560E-16 -1.84972190E-14  5.74147774E-14
  7.02746389E-16 -5.75014251E-16  1.00000000E+00 -4.68637300E-19 -8.36443383E-16
 -1.55016792E-15  2.34814887E-15 -2.58620048E-03  6.47069052E-02  1.09128733E-15
 -3.03655873E-16 -3.52241332E-03 -1.13007219E-01  3.12850632E-15  5.22026168E-15
  9.64015123E-02  9.92653137E-01  9.36141244E-14 -2.54888972E-16  9.26895960E-02
  1.85362292E-14  2.91390957E-02  2.98406617E-02  2.91390957E-02  2.98406617E-02
  6.25314912E-17 -1.89013087E-15  4.52130875E-03 -5.38270573E-16  1.25863106E-15
  4.48127867E-15  4.26015935E-02  1.30074426E-16 -8.79061345E-15 -9.33951727E-14
  9.98985216E-01  1.39681091E-15 -1.13134503E-14 -5.87934713E-14 -2.74370304E-15
 -4.13816981E-16 -1.80369283E-15 -2.57638576E-15 -2.49434948E-02 -5.85649680E-01
 -6.15540914E-16  1.63225850E-15  5.31649317E-02  1.44787626E+00 -1.16966171E-16
 -4.74298250E-15 -7.76926599E-01  1.27665148E-01 -1.68580490E-15 -2.23546395E-15
 -1.06067348E+00  1.53607359E-15 -8.87433963E-01 -1.31077905E-01 -8.87433963E-01
 -1.31077905E-01 -4.23316427E-17 -9.74674205E-16 -4.66747587E-16  2.84083684E-02
  1.03370199E-16  1.45379921E-15  5.66548803E-16 -8.63570551E-01 -7.65643052E-16
  8.80250336E-16 -1.36969070E-15  1.27494133E+00 -1.61186826E-15 -1.00297316E-15
  9.59837773E-01 -5.25785791E-02 -9.59837773E-01  5.25785791E-02
Beta MO coefficients                       R   N=         324
  9.96141985E-01  2.03162273E-02 -9.25003336E-17  3.29383049E-16 -1.60189219E-03
 -7.57192971E-03 -8.16917486E-17  8.48429915E-16  1.62947319E-03  4.07051306E-04
  3.85402072E-18 -2.79645698E-16 -5.13819448E-04  5.29297407E-18  1.17042981E-04
  1.77179477E-03  1.17042981E-04  1.77179477E-03 -2.13414236E-01  4.86128033E-01
  8.79874525E-16  3.29191702E-16 -1.13745898E-01  4.83847659E-01 -1.32273994E-15
 -1.23032047E-15 -7.11392290E-02  1.91851293E-02  8.24349436E-17  1.07388685E-16
 -3.79154534E-02  2.94040002E-16  1.37355140E-01 -2.52755570E-02  1.37355140E-01
 -2.52755570E-02  6.13066774E-18 -3.29543055E-16  1.07825393E-15  5.60277756E-01
  1.18813187E-15 -4.96288895E-16  7.32258510E-16  3.19249830E-01  1.31431647E-16
  3.60166739E-17 -8.72350731E-16 -5.70239114E-02 -3.55767824E-17 -2.35098040E-16
  2.26382691E-01  3.45594890E-02 -2.26382691E-01 -3.45594890E-02 -7.23472502E-02
  1.95302563E-01  9.56681006E-16 -6.79167019E-16  6.10833873E-01  2.19783890E-01
  6.10579424E-16 -2.77288916E-16  3.81755164E-01 -3.35144119E-02 -3.97704541E-17
  9.91224617E-17 -1.21905860E-03 -1.05890328E-16 -1.28661570E-01 -3.17571053E-02
 -1.28661570E-01 -3.17571053E-02  2.65657137E-16 -5.51431816E-16  5.35457737E-01
 -1.65622862E-16 -1.96351664E-16 -2.82351347E-15  6.16903831E-01  4.30604408E-16
  4.33508929E-16 -1.55019540E-16 -3.72035241E-02  1.03978108E-16  6.79806414E-17
 -3.44202335E-16 -1.79811995E-16  9.90060231E-16  9.28026308E-16  3.85287817E-15
 -8.88461181E-02  1.61674098E-01  7.33568358E-16  1.16024769E-15 -2.34264410E-01
  1.10075585E+00  9.36320029E-16  5.72748884E-15 -4.16833236E-01  1.55888680E-02
 -1.73961842E-16 -2.12802335E-16 -6.49808678E-03  8.83492772E-16 -1.01873234E-01
 -9.46978288E-01 -1.01873234E-01 -9.46978288E-01 -8.45838211E-16  1.25177268E-14
  2.38615197E-16 -3.67687632E-01 -2.77881188E-15 -1.12293162E-14  5.82641717E-16
 -7.40177739E-01  1.23575531E-15  9.87212468E-17  8.47487632E-17  4.44577256E-03
  3.63433341E-16 -1.19016946E-16  1.32158705E-01  1.29083703E+00 -1.32158705E-01
 -1.29083703E+00  3.16694825E-16 -1.54181956E-14  2.01261268E-16 -1.05416044E-01
  8.47121469E-16  2.38782540E-14  2.32443934E-16 -5.34561722E-01 -7.38855352E-15
 -1.09821882E-16 -1.07195040E-15 -2.20053844E-01  1.55721107E-15 -2.41627629E-16
  8.15738317E-01 -5.93914275E-01 -8.15738317E-01  5.93914275E-01  2.75269422E-02
 -6.33621941E-02 -2.11139293E-15 -5.10120154E-15  7.74655603E-01  9.79888193E-02
  1.53800568E-15  5.82973318E-15 -5.41066324E-01 -7.77601154E-03 -1.10597922E-15
 -1.19159505E-15 -1.55113659E-01 -3.44068734E-16  6.28958423E-01 -5.15681756E-01
  6.28958423E-01 -5.15681756E-01  7.24599238E-02 -4.62300460E-01 -2.12484565E-15
 -1.40332778E-14 -5.28258591E-01  1.27153329E-01  2.83679231E-15  1.92905884E-14
  1.06125393E+00 -5.23740714E-02 -5.39184393E-16 -9.74199697E-16 -1.67719834E-01
 -7.81491487E-16  6.27572562E-01 -1.87145750E-01  6.27572562E-01 -1.87145750E-01
  8.53740814E-17 -2.36873756E-16  1.02436336E+00 -2.62290056E-15  1.01012211E-16
 -4.02855319E-16 -9.76714096E-01  3.93202716E-15  1.61322615E-15  3.83231193E-16
  1.61966696E-02  2.35668911E-16 -9.84332963E-16  1.65790593E-16  3.62837255E-15
 -3.86546797E-15  3.00995257E-15  1.21364936E-15  4.42507712E-16 -3.17501834E-14
 -3.04128245E-15 -9.94478947E-01  9.96302581E-15  5.86272176E-14  3.02985103E-15
  1.60671308E+00 -3.00618473E-14 -5.52480230E-16 -9.72449073E-16 -6.88146684E-03
  7.08647336E-15  1.62789591E-15  7.82469985E-02 -9.81670690E-01 -7.82469985E-02
  9.81670690E-01  5.80076600E-02 -1.58217296E+00  9.34386468E-16  2.17760772E-14
  2.29791810E-01  2.53225823E+00 -8.86289161E-16 -3.77339053E-14 -7.13189533E-01
  6.09269466E-02  1.21880823E-15  4.04007529E-15  2.65983702E-01  2.35152281E-15
 -1.94833639E-01 -6.67920919E-01 -1.94833639E-01 -6.67920919E-01  2.84225858E-03
  1.37768225E-01 -1.09714342E-15 -4.06882288E-15 -1.60052249E-02 -3.04330160E-01
  5.38486128E-16  7.75036957E-15  1.83063858E-01  9.81539705E-01  3.03931415E-15
 -1.34859486E-15  1.34468020E-01  3.51208370E-14  1.13555216E-01  5.42569357E-02
  1.13555216E-01  5.42569357E-02 -1.24776555E-16 -2.81912732E-15  3.25957985E-16
  2.26859281E-15  4.77570450E-16  6.70952821E-15  2.34818855E-15 -5.81380531E-15
 -5.48472983E-15 -3.45978034E-14  7.32793471E-14  9.64336244E-16 -8.76369976E-15
  1.00000000E+00 -3.27588785E-15  3.08211446E-15 -5.70687572E-15 -3.35878436E-15
 -3.93958741E-17  7.36257827E-16  3.33238433E-03 -1.74020872E-15  5.49809456E-16
 -4.19255678E-16  3.88024680E-02 -2.53069027E-16 -6.93591270E-16 -3.23808134E-15
  9.99176444E-01  1.00432823E-15 -2.74751625E-15 -7.45510478E-14  2.44696213E-15
 -2.57025954E-15 -2.59529346E-15  1.68398240E-15 -1.63089404E-02 -5.95744849E-01
 -8.06102567E-16  6.24605518E-16  5.02862470E-02  1.38918527E+00 -1.41857547E-16
 -7.32664891E-15 -7.40591444E-01  1.82294817E-01 -2.10512915E-15  6.26283733E-15
 -1.06693193E+00 -3.55881172E-15 -8.46244554E-01 -1.29229980E-01 -8.46244554E-01
 -1.29229980E-01  1.93932721E-16  5.00340720E-15 -5.17665317E-16  2.68204872E-02
 -4.26730840E-16 -1.10347058E-14  5.95762923E-16 -8.63486636E-01  5.05963401E-15
  6.91190771E-17 -1.64353122E-15  1.27587851E+00  4.84248048E-15 -1.26353678E-15
  9.56333548E-01 -5.08499091E-02 -9.56333548E-01  5.08499091E-02
Orthonormal basis                          R   N=         324
  5.29754065E-02  1.89461880E-01  1.49362543E-17 -3.35486742E-18 -6.69700749E-02
  2.51236217E-01  1.35518565E-18 -9.25816485E-18 -1.20849292E-01  4.87833645E-03
  2.47099600E-41  2.23599194E-18 -3.69260726E-02  0.00000000E+00  1.75470646E-01
  2.29903206E-01  1.75470646E-01  2.29903206E-01 -1.16325562E-17 -6.58901910E-17
 -1.87005569E-16  2.68325350E-01 -1.28533227E-16  4.85780520E-17 -1.74669666E-16
  3.84743925E-01 -7.19499310E-18  2.30620600E-18  0.00000000E+00 -1.46940550E-01
  2.48291752E-17  8.51823152E-27  2.63043966E-01  1.64872903E-01 -2.63043966E-01
 -1.64872903E-01  1.60443675E-01  2.83112581E-01 -5.21363531E-16 -2.23330231E-17
  4.34919400E-01  2.50156487E-01 -4.85128078E-16  3.22707207E-17  4.69165754E-01
 -1.01789698E-02 -3.01473852E-34 -2.50624074E-17  7.70486787E-02 -9.20025184E-39
 -1.19353201E-01  1.22196686E-02 -1.19353201E-01  1.22196686E-02  2.94501229E-16
  1.51477136E-16  5.77057836E-01  8.15514239E-17  5.40596917E-16  3.04196926E-16
  5.77057836E-01  1.07455254E-16  4.46154812E-16  3.08902191E-16  0.00000000E+00
 -1.55000667E-16 -2.15202737E-18  8.64061504E-23  4.81626948E-17  1.10232176E-16
 -2.23647552E-16 -9.36255094E-17  2.23952472E-16  9.04984783E-17  7.04320615E-17
  3.71794071E-01 -2.37805857E-16  2.05025886E-16  1.24632135E-16  2.61844932E-01
 -1.22835269E-16 -1.75076115E-17  2.07075254E-16  7.71569925E-01  8.77193847E-16
 -4.04443856E-19 -1.81983420E-01  2.61085026E-02  1.81983420E-01 -2.61085026E-02
  3.15893995E-01  1.46468835E-01 -1.33065838E-17 -3.17719327E-16 -2.83268783E-01
  4.15160948E-02  1.48495688E-17 -4.72993607E-16 -1.70028837E-01 -1.04236456E-01
 -3.78195859E-31 -8.60443103E-16  7.89007274E-01  2.95465515E-33 -1.63295414E-01
 -1.62743978E-02 -1.63295414E-01 -1.62743978E-02 -5.86699879E-16 -1.94856467E-16
 -4.96839318E-16 -1.58878029E-16  2.02736103E-16  1.13878702E-17 -5.09699174E-16
  3.29357135E-17  1.41841441E-16  9.91385951E-01 -2.99760217E-15 -8.16508468E-17
  1.30972884E-01  3.81639165E-17  7.24183019E-17  1.89633706E-16  5.75448936E-17
  1.32032596E-16 -1.48814957E-19 -2.23316938E-17 -8.25726340E-17  4.83151405E-16
  3.46729218E-18  4.78926249E-17  8.46201253E-17 -4.25712544E-16 -1.80188971E-17
  2.74667063E-15  9.99745759E-01 -4.27985915E-16  3.57696225E-16 -2.25481319E-02
 -8.32034355E-17  1.67666044E-17  6.58153076E-17 -4.66861543E-17 -1.95880234E-32
 -2.71647456E-30  1.29016799E-17  3.37083419E-17  4.56880336E-31  5.86821241E-30
 -1.28804234E-17 -2.19481171E-17 -2.14681081E-30  2.31527533E-17  2.25481319E-02
 -4.48733220E-17  3.05873092E-18  9.99745759E-01 -5.83177734E-17  7.12251629E-17
  5.83177734E-17 -7.12251629E-17  8.46564390E-01  1.09580183E-01 -8.39513415E-17
 -3.49265403E-17 -1.82140862E-01 -9.90599974E-02 -3.37657817E-16  2.06138853E-17
 -4.64414193E-02  5.58675926E-02 -2.48545899E-30  1.60792325E-16 -4.22884072E-01
  3.26216493E-32  1.53745747E-02 -1.73583623E-01  1.53745747E-02 -1.73583623E-01
 -4.03283660E-15  6.24809024E-15 -2.69242281E-16  9.77582480E-01 -6.67087868E-15
  1.96325667E-15  2.83024204E-16 -3.67265104E-01  2.68178536E-15  3.45469975E-17
 -5.83964829E-16 -3.88658620E-01 -2.32039806E-15 -3.38530335E-17 -1.35912137E-01
 -3.23325175E-01  1.35912137E-01  3.23325175E-01  4.25677672E-01 -6.64752309E-01
 -3.39857333E-16  9.50397551E-15  7.07377863E-01 -2.12328485E-01  2.64608812E-16
 -3.52107704E-15 -2.78763464E-01 -2.84277950E-02  1.97171531E-24 -3.44152432E-15
  2.15181309E-01 -4.44702104E-26  1.17365301E-01  2.98648100E-01  1.17365301E-01
  2.98648100E-01  1.27954153E-16 -6.53893567E-16  1.00152416E+00  5.76054382E-16
 -1.26080264E-16 -6.04946335E-17 -1.00152416E+00 -3.92136433E-16 -8.65094581E-17
  1.19919685E-16  2.45700865E-17 -2.02745382E-17 -2.13688837E-16  6.28994214E-16
 -5.00925053E-16  3.85202750E-16 -6.97485745E-16  1.09282124E-15  1.73928222E-01
 -7.88921240E-01 -4.90638727E-16 -4.48015719E-18 -7.18841665E-01  2.21751494E-01
  8.10023572E-16 -6.61987595E-18  8.86674979E-01  4.73234577E-03  7.18261134E-23
 -4.57655025E-16 -3.58210110E-02 -1.61995663E-24 -1.23816322E-01  4.03787724E-01
 -1.23816322E-01  4.03787724E-01  6.37476142E-02 -2.71729300E-01  1.22817184E-15
  3.26376588E-16 -2.57814251E-02  1.58874362E-01 -8.08415174E-16 -8.89079203E-18
  5.75308467E-01 -7.21345329E-02 -2.99992030E-20 -7.24163459E-16  5.46015025E-01
  6.76598005E-22  1.08671698E+00 -6.19544299E-01  1.08671698E+00 -6.19544299E-01
  9.56718679E-17 -4.67396003E-16 -4.75799010E-16 -3.73804382E-02 -2.18816538E-16
  6.39436457E-17  7.37061726E-16 -7.08252621E-01  5.72685028E-16  2.60231494E-16
 -6.41249393E-16  8.80666428E-01  4.77888394E-16 -1.90265913E-16  1.21933106E+00
 -6.96123288E-01 -1.21933106E+00  6.96123288E-01  1.54189416E-16  3.31394088E-16
  1.98067978E-17 -5.31630969E-01  3.93897894E-16 -2.11789738E-15  9.70684440E-17
  1.84650475E+00  7.02189415E-16 -1.14781937E-16  7.77184746E-17 -3.68873890E-01
  4.79775628E-16  1.22530744E-16 -2.17462769E-01 -1.53930513E+00  2.17462769E-01
  1.53930513E+00 -9.70852153E-03 -1.45199034E+00 -3.74082030E-16 -3.00602965E-16
  2.25473471E-01  3.11415411E+00 -4.53591368E-16  1.46028970E-15 -1.17197327E+00
  4.36782995E-02 -2.44053114E-16 -4.36685269E-16 -3.30618455E-01  5.50434124E-18
 -5.65882864E-01 -9.72450955E-01 -5.65882864E-01 -9.72450955E-01
Total SCF Density                          R   N=         171
  2.08822440E+00 -2.04576355E-01  5.89947612E-01 -5.08769586E-16  7.36639123E-16
  5.33739336E-01 -2.84571289E-16  3.90383185E-16  1.05622600E-16  6.65379993E-01
 -4.00035301E-02  1.23777155E-01  6.45299161E-17 -4.32530245E-17  8.00893599E-01
 -2.55778480E-01  5.68835849E-01  1.31131210E-15 -4.48347668E-16  1.41390093E-01
  5.52002992E-01 -1.17798820E-17 -3.17157606E-16  2.97804969E-01  1.29188169E-16
  6.59090549E-16  6.58240820E-18  1.66163131E-01  9.83375654E-16 -6.63457829E-16
  1.40139961E-15  3.71938267E-01  6.64703075E-16 -1.11674014E-15  8.22016254E-16
  2.07977952E-01 -1.73216238E-02  7.19009964E-02  3.50200254E-16 -3.20971668E-16
  4.84165403E-01  8.28947589E-02  5.69241840E-16  2.33988209E-16  2.93054110E-01
  1.85506650E-03 -6.32297169E-03 -1.16773890E-17  1.90444202E-16 -5.06243362E-02
 -6.95459442E-03 -7.02595161E-17  4.89727256E-17 -3.04825580E-02  3.46149798E-03
  9.15608200E-18 -2.56671172E-17 -2.72067079E-02 -7.63655549E-16 -1.34965890E-16
 -5.28193010E-17 -1.51802429E-02 -4.97351096E-16 -9.49809165E-17  1.15715231E-17
  1.38682855E-03 -2.23824389E-18  9.90916273E-17 -1.54987506E-16 -6.67988782E-02
 -1.79490323E-17  1.75809669E-16 -9.36348807E-17 -3.73485657E-02  1.92759634E-17
 -1.69198410E-17  8.42877172E-17  6.70721936E-03  7.64285641E-03 -1.70326240E-02
  4.27053241E-16 -1.59150944E-16  1.28478054E-02 -1.69487149E-02  3.15309123E-16
 -2.48084571E-17  7.66231650E-03 -1.31745054E-03 -2.93864672E-17  1.02716017E-17
  1.64743436E-03  1.14977264E-16  3.07930417E-17  2.22214836E-17 -2.06863609E-16
 -2.22308796E-16  2.85393532E-17  1.23986894E-17 -1.16332963E-16 -1.32852937E-16
  1.88048073E-17 -1.13271287E-18  2.08570025E-17 -1.38085733E-17  2.42692528E-31
 -3.65651331E-02  7.80868404E-02  4.98639464E-16  2.47848910E-01 -1.85779037E-01
  7.02392360E-02 -1.98212962E-17  1.38747082E-01 -1.13018257E-01  1.22974362E-02
 -2.75944257E-16 -2.49080604E-02 -7.05087157E-03 -1.01220836E-17  1.56600733E-01
  2.10040996E-02 -4.17873931E-02 -1.55479701E-15  2.96466302E-02 -2.88237438E-02
 -4.10089645E-02 -8.36858225E-16  1.66821868E-02 -1.72910917E-02  1.76720118E-03
  4.47280164E-17 -2.99039212E-03  7.01057458E-04 -5.03165687E-18  1.11864859E-02
  5.04059851E-03 -3.65651331E-02  7.80868404E-02 -8.96097876E-16 -2.47848910E-01
 -1.85779037E-01  7.02392360E-02 -8.55153103E-16 -1.38747082E-01 -1.13018257E-01
  1.22974362E-02  3.72029055E-16  2.49080604E-02 -7.05087157E-03  1.48066351E-16
 -2.92268781E-02 -1.15422809E-02  1.56600733E-01  2.10040996E-02 -4.17873931E-02
  6.52263084E-16 -2.96466302E-02 -2.88237438E-02 -4.10089645E-02  3.85734521E-16
 -1.66821868E-02 -1.72910917E-02  1.76720118E-03  6.29639600E-18  2.99039212E-03
  7.01057458E-04  1.56153601E-17 -1.15422809E-02  2.05009408E-03  1.11864859E-02
  5.04059851E-03
Spin SCF Density                           R   N=         171
  2.06716783E-03 -9.29955708E-03  4.01950025E-02  1.89499325E-16 -4.88750211E-16
  5.33739336E-01 -9.05428952E-16  6.91498318E-16 -1.10262078E-15  3.75576663E-02
  3.02220831E-03 -4.16245878E-03 -9.04348527E-16 -4.68960616E-16  2.87761684E-02
 -2.37156829E-03  1.28709795E-02  3.79346855E-17  9.27423878E-17 -1.70656815E-02