Calculo de punto sencillo de H2O^+1 a nivel de teoria UB3LYP/6-31G(d), o
SP        UB3LYP                                                      6-31G(d)            
Number of atoms                            I                3
Info1-9                                    I   N=           9
          12          12           0           0           0         110
           1          18        -502
Charge                                     I                1
Multiplicity                               I                2
Number of electrons                        I                9
Number of alpha electrons                  I                5
Number of beta electrons                   I                4
Number of basis functions                  I               18
Number of independent functions            I               18
Number of point charges in /Mol/           I                0
Number of translation vectors              I                0
Atomic numbers                             I   N=           3
           8           1           1
Nuclear charges                            R   N=           3
  8.00000000E+00  1.00000000E+00  1.00000000E+00
Current cartesian coordinates              R   N=           9
  0.00000000E+00  0.00000000E+00  2.24244352E-01  0.00000000E+00  1.43041686E+00
 -8.96979296E-01  0.00000000E+00 -1.43041686E+00 -8.96979296E-01
Force Field                                I                0
Int Atom Types                             I   N=           3
           0           0           0
MM charges                                 R   N=           3
  0.00000000E+00  0.00000000E+00  0.00000000E+00
Integer atomic weights                     I   N=           3
          16           1           1
Real atomic weights                        R   N=           3
  1.59949146E+01  1.00782504E+00  1.00782504E+00
Atom fragment info                         I   N=           3
           0           0           0
Atom residue num                           I   N=           3
           0           0           0
Nuclear spins                              I   N=           3
           0           1           1
Nuclear ZEff                               R   N=           3
 -5.60000000E+00 -1.00000000E+00 -1.00000000E+00
Nuclear ZNuc                               R   N=           3
  8.00000000E+00  1.00000000E+00  1.00000000E+00
Nuclear QMom                               R   N=           3
  0.00000000E+00  0.00000000E+00  0.00000000E+00
Nuclear GFac                               R   N=           3
  0.00000000E+00  2.79284600E+00  2.79284600E+00
MicOpt                                     I   N=           3
          -1          -1          -1
Number of contracted shells                I                8
Number of primitive shells                 I               19
Pure/Cartesian d shells                    I                0
Pure/Cartesian f shells                    I                0
Highest angular momentum                   I                2
Largest degree of contraction              I                6
Shell types                                I   N=           8
           0          -1          -1          -2           0           0
           0           0
Number of primitives per shell             I   N=           8
           6           3           1           1           3           1
           3           1
Shell to atom map                          I   N=           8
           1           1           1           1           2           2
           3           3
Primitive exponents                        R   N=          19
  5.48467166E+03  8.25234946E+02  1.88046958E+02  5.29645000E+01  1.68975704E+01
  5.79963534E+00  1.55396162E+01  3.59993359E+00  1.01376175E+00  2.70005823E-01
  8.00000000E-01  1.87311370E+01  2.82539436E+00  6.40121692E-01  1.61277759E-01
  1.87311370E+01  2.82539436E+00  6.40121692E-01  1.61277759E-01
Contraction coefficients                   R   N=          19
  1.83107443E-03  1.39501722E-02  6.84450781E-02  2.32714336E-01  4.70192898E-01
  3.58520853E-01 -1.10777550E-01 -1.48026263E-01  1.13076702E+00  1.00000000E+00
  1.00000000E+00  3.34946043E-02  2.34726953E-01  8.13757326E-01  1.00000000E+00
  3.34946043E-02  2.34726953E-01  8.13757326E-01  1.00000000E+00
P(S=P) Contraction coefficients            R   N=          19
  0.00000000E+00  0.00000000E+00  0.00000000E+00  0.00000000E+00  0.00000000E+00
  0.00000000E+00  7.08742682E-02  3.39752839E-01  7.27158577E-01  1.00000000E+00
  0.00000000E+00  0.00000000E+00  0.00000000E+00  0.00000000E+00  0.00000000E+00
  0.00000000E+00  0.00000000E+00  0.00000000E+00  0.00000000E+00
Coordinates of each shell                  R   N=          24
  0.00000000E+00  0.00000000E+00  2.24244352E-01  0.00000000E+00  0.00000000E+00
  2.24244352E-01  0.00000000E+00  0.00000000E+00  2.24244352E-01  0.00000000E+00
  0.00000000E+00  2.24244352E-01  0.00000000E+00  1.43041686E+00 -8.96979296E-01
  0.00000000E+00  1.43041686E+00 -8.96979296E-01  0.00000000E+00 -1.43041686E+00
 -8.96979296E-01  0.00000000E+00 -1.43041686E+00 -8.96979296E-01
Constraint Structure                       R   N=           9
  0.00000000E+00  0.00000000E+00  2.24244352E-01  0.00000000E+00  1.43041686E+00
 -8.96979296E-01  0.00000000E+00 -1.43041686E+00 -8.96979296E-01
Num ILSW                                   I              100
ILSW                                       I   N=         100
           1           0           0           0           2           0
           0           0           0           0         402          -1
           0           0           0           0           0           0
           0           0           1           0           0           0
           1           1           0           0           0           0
           0           0      100000           0          -1           0
           0           0           0           0           0           0
           0           0           0           1           0           0
           0           0           1           0           0           0
           0           0           4          41           0           0
           0           0           5           0           0           0
           0           0           0           0           0           0
           0           0           0           0           0           0
           0           0           0           0           0           0
           0           0           0           0           0           0
           0           0           0           0           0           0
           0           0           0           0
Num RLSW                                   I               41
RLSW                                       R   N=          41
  8.00000000E-01  7.20000000E-01  1.00000000E+00  8.10000000E-01  2.00000000E-01
  0.00000000E+00  0.00000000E+00  1.00000000E+00  0.00000000E+00  0.00000000E+00
  0.00000000E+00  0.00000000E+00  1.00000000E+00  0.00000000E+00  0.00000000E+00
  0.00000000E+00  0.00000000E+00  1.00000000E+00  0.00000000E+00  0.00000000E+00
  0.00000000E+00  0.00000000E+00  1.00000000E+00  0.00000000E+00  0.00000000E+00
  0.00000000E+00  0.00000000E+00  1.00000000E+00  0.00000000E+00  0.00000000E+00
  0.00000000E+00  0.00000000E+00  1.00000000E+00  0.00000000E+00  0.00000000E+00
  0.00000000E+00  0.00000000E+00  0.00000000E+00  1.00000000E+00  1.00000000E+00
  0.00000000E+00
MxBond                                     I                2
NBond                                      I   N=           3
           2           1           1
IBond                                      I   N=           6
           2           3           1           0           1           0
RBond                                      R   N=           6
  1.00000000E+00  1.00000000E+00  1.00000000E+00  0.00000000E+00  1.00000000E+00
  0.00000000E+00
Virial Ratio                               R      2.003297644543929E+00
SCF Energy                                 R     -7.595185377684858E+01
Total Energy                               R     -7.595185377684858E+01
S**2                                       R      7.523560210425626E-01
S**2 after annihilation                    R      7.500033680609018E-01
RMS Density                                R      9.777252529342670E-09
Job Status                                 I                1
Nuclear derivative order                   I                0
External E-field                           R   N=          35
  0.00000000E+00  0.00000000E+00  0.00000000E+00  0.00000000E+00  0.00000000E+00
  0.00000000E+00  0.00000000E+00  0.00000000E+00  0.00000000E+00  0.00000000E+00
  0.00000000E+00  0.00000000E+00  0.00000000E+00  0.00000000E+00  0.00000000E+00
  0.00000000E+00  0.00000000E+00  0.00000000E+00  0.00000000E+00  0.00000000E+00
  0.00000000E+00  0.00000000E+00  0.00000000E+00  0.00000000E+00  0.00000000E+00
  0.00000000E+00  0.00000000E+00  0.00000000E+00  0.00000000E+00  0.00000000E+00
  0.00000000E+00  0.00000000E+00  0.00000000E+00  0.00000000E+00  0.00000000E+00
IOpCl                                      I                1
IROHF                                      I                0
Alpha Orbital Energies                     R   N=          18
 -1.97108200E+01 -1.54258632E+00 -1.01247982E+00 -8.83451911E-01 -8.76302825E-01
 -2.79290323E-01 -1.99879173E-01  3.80600607E-01  4.01692228E-01  4.29915681E-01
  5.07629127E-01  6.40725460E-01  9.18535532E-01  1.21690345E+00  1.23988168E+00
  1.25349728E+00  1.79689539E+00  2.12522737E+00
Beta Orbital Energies                      R   N=          18
 -1.96834348E+01 -1.47136716E+00 -9.90752443E-01 -8.45372031E-01 -6.16744082E-01
 -2.68627805E-01 -1.93920823E-01  3.79220243E-01  4.45888561E-01  4.97538681E-01
  5.26642618E-01  6.55647148E-01  9.60248145E-01  1.26444840E+00  1.28248234E+00
  1.31803881E+00  1.85533424E+00  2.13575745E+00
Alpha MO coefficients                      R   N=         324
  9.94926762E-01  2.86313390E-02  1.28713340E-16  4.97966885E-17 -1.77210536E-03
 -1.36559259E-02  4.14501905E-18 -7.04920803E-16  2.73204380E-03 -1.28897719E-04
  4.94615601E-19  8.20750523E-16  4.48993028E-04 -1.36574701E-18  3.42312021E-04
  3.09530544E-03  3.42312021E-04  3.09530544E-03 -2.20817403E-01  5.18541462E-01
 -2.59700615E-17 -4.52060700E-16 -1.36882813E-01  4.69979913E-01  5.62752234E-18
 -1.88101334E-15 -7.11286043E-02  5.62882986E-04 -8.18368023E-17 -1.34027512E-16
 -4.24150251E-03  5.66794617E-17  1.23464202E-01 -2.85123153E-02  1.23464202E-01
 -2.85123153E-02 -1.16545041E-16 -2.17138369E-15 -5.18540904E-16  5.95003178E-01
  3.23516888E-16  1.14715919E-14 -1.35943492E-16  2.90620006E-01 -3.98058455E-15
  1.95839593E-16  1.21434748E-16 -5.00320836E-02 -1.40363056E-16 -3.31957597E-18
  2.18011426E-01  4.21770344E-02 -2.18011426E-01 -4.21770344E-02 -8.37040058E-15
  2.19759181E-14  7.30137849E-01 -3.10599591E-16  7.02972521E-14  2.58929783E-14
  4.08083652E-01  3.59878596E-16  3.97792097E-14 -5.29751073E-15 -3.87677369E-02
 -1.89067630E-16  9.42759068E-16  6.56687830E-16 -1.41876124E-14 -3.79942097E-15
 -1.42655979E-14 -5.39333343E-15 -7.53096665E-02  1.98195582E-01 -8.10938231E-14
  4.54269708E-17  6.29420621E-01  2.33971340E-01 -4.55702769E-14 -9.83815501E-16
  3.51295722E-01 -4.45419012E-02  4.61073360E-15 -7.61367765E-17  8.17233819E-03
 -5.19543544E-16 -1.31155521E-01 -4.13239281E-02 -1.31155521E-01 -4.13239281E-02
 -8.98607291E-02  2.36529807E-01 -7.25900266E-16 -3.76940996E-13 -3.00166361E-01
  9.44744641E-01  9.96170143E-16 -7.04711237E-13 -3.57285149E-01  9.70710271E-03
 -3.71245322E-16  6.99227579E-15  1.12364380E-02 -3.12707994E-16 -1.71066063E-01
 -8.54352673E-01 -1.71066063E-01 -8.54352673E-01  9.51366167E-14 -3.45514471E-13
 -2.33809829E-16 -4.55072010E-01  3.71736500E-13 -7.48110597E-13 -5.76626249E-17
 -6.25179855E-01  2.66580260E-13 -8.17008768E-15  4.86453427E-16 -6.60260934E-03
 -2.22388991E-14 -2.74569167E-16  2.17506990E-01  1.13872497E+00 -2.17506990E-01
 -1.13872497E+00 -3.09695969E-14  2.57061889E-13 -6.45107042E-15 -1.27968331E-01
 -6.49166506E-13 -4.00163491E-13  7.46381913E-15 -3.61854006E-01  4.78985280E-13
 -1.20630916E-14 -1.25106211E-15 -2.24673914E-01  1.45535716E-13  5.17456785E-16
  8.02593163E-01 -7.64280479E-01 -8.02593163E-01  7.64280479E-01 -3.02976027E-16
  2.49648706E-15 -8.96068617E-01  4.09708559E-16 -1.01957659E-14 -5.94100245E-15
  1.08041818E+00  3.50099196E-15  6.82813022E-15 -1.45528671E-15 -2.88244833E-02
  1.73410925E-15  2.43474797E-15  1.31576943E-15 -1.56747653E-14  1.51329441E-14
 -3.92119922E-15  4.63303103E-15  1.53949082E-02 -5.49964744E-02 -1.40299859E-14
  1.48543287E-13  7.25339059E-01  2.39633489E-01  1.70338691E-14 -6.51561860E-13
 -5.67129040E-01  1.58965993E-02 -4.74619455E-16 -2.03531943E-13 -1.71161579E-01
  6.44994803E-16  6.26038328E-01 -6.13506393E-01  6.26038328E-01 -6.13506393E-01
  6.37055902E-02 -4.32187288E-01 -9.07777384E-16  5.17185257E-14 -5.47816719E-01
  1.65782247E-01  1.13070062E-15 -1.08735321E-13  1.06237035E+00 -3.12466165E-02
  5.44694536E-16 -1.45645681E-14 -1.94939446E-01  2.31797896E-16  5.87268548E-01
 -1.93151725E-01  5.87268548E-01 -1.93151725E-01 -1.04567415E-14  2.99508841E-13
  8.92927292E-16 -9.33384023E-01  7.59128135E-14 -3.95328732E-13 -9.64431339E-16
  1.69995964E+00  5.34646534E-14 -9.14368096E-16 -1.47871043E-15  1.70757453E-02
 -9.36773296E-14 -2.15023657E-15  2.29529894E-02 -1.04929721E+00 -2.29529894E-02
  1.04929721E+00  5.84154504E-02 -1.57225070E+00 -9.84878464E-16 -1.72659937E-13
  2.02340787E-01  2.55688675E+00  8.29769653E-16  3.47614364E-13 -7.04768604E-01
  3.02839803E-02 -1.96594557E-15 -3.06033614E-14  2.80659653E-01 -1.75338413E-15
 -1.79634186E-01 -7.05763035E-01 -1.79634186E-01 -7.05763035E-01  1.01280806E-16
 -6.78251374E-15  9.71981031E-16 -2.10110430E-15  4.18019144E-16  1.30879243E-14
 -2.05482318E-15  4.84510947E-15 -6.44546649E-15 -3.57910994E-14 -2.56045843E-14
  7.99854848E-17 -3.96870148E-15  1.00000000E+00 -4.02949222E-15 -5.38664829E-15
 -2.38879577E-15 -1.21084710E-15 -2.53422913E-03  8.27100001E-02 -2.22453430E-15
  2.90801054E-15 -8.86111518E-03 -1.51651117E-01  7.17918312E-16 -6.42502038E-15
  1.18016564E-01  9.91353641E-01 -3.21599867E-14  2.09942029E-15  9.40300930E-02
  3.62249079E-14  4.02277198E-02  3.91398644E-02  4.02277198E-02  3.91398644E-02
  4.61131004E-17 -9.40373620E-16  2.47997267E-03 -1.37490622E-15  3.80022193E-16
  1.09395229E-15  4.70178724E-02  4.02487802E-15  2.52558102E-15  3.24063590E-14
  9.98832424E-01 -8.09935737E-16  4.47263601E-15  2.55358247E-14  1.81349527E-15
 -4.78413187E-15 -3.31058129E-16  4.00865635E-15 -2.27836348E-02 -6.01961838E-01
 -1.46171359E-16 -7.23444865E-15  5.85294071E-02  1.46313353E+00  2.33479172E-17
  3.14389547E-14 -7.85601372E-01  1.33771832E-01  5.42375861E-16 -1.98081819E-14
 -1.06100143E+00 -9.58616192E-16 -8.77391158E-01 -1.39112813E-01 -8.77391158E-01
 -1.39112813E-01 -3.58012708E-16 -2.17478433E-14 -5.60301124E-17  3.49952945E-02
  3.73860993E-15  4.91524049E-14 -3.48801919E-16 -8.75536915E-01 -2.09046438E-14
  9.79335353E-16  5.96976598E-16  1.27526144E+00 -1.25494188E-14  3.16089480E-16
  9.56723357E-01 -5.31886232E-02 -9.56723357E-01  5.31886232E-02
Beta MO coefficients                       R   N=         324
  9.95199748E-01  2.70581874E-02  1.25295578E-16  6.75357427E-16 -1.68309657E-03
 -1.27353071E-02  3.35609137E-18  3.78550480E-16  2.48116264E-03  1.05908471E-04
 -1.41472915E-18  5.34066573E-17 -6.97082177E-06  1.40832983E-18  1.89898469E-04
  2.90253052E-03  1.89898469E-04  2.90253052E-03 -2.14668543E-01  4.89687686E-01
 -6.78859711E-18  1.23761545E-15 -1.42579259E-01  4.69808227E-01 -2.16019773E-16
  3.06580552E-16 -7.47337298E-02  1.28821658E-02 -2.99677611E-17 -2.57631740E-16
 -2.52408704E-02 -5.72440288E-17  1.37391468E-01 -2.20615383E-02  1.37391468E-01
 -2.20615383E-02  1.35902896E-16 -5.65573008E-16 -1.68599939E-17  5.75805436E-01
 -1.65937335E-16  2.93378361E-15  1.00520261E-16  2.85354370E-01 -6.40544872E-16
 -4.98825989E-17  1.17031319E-16 -4.81816320E-02  1.66225811E-16  1.54889226E-16
  2.31795360E-01  5.33463466E-02 -2.31795360E-01 -5.33463466E-02 -8.08769990E-02
  2.04169971E-01 -2.34671877E-15 -2.90307909E-16  6.13777582E-01  2.62758749E-01
 -1.65687237E-15 -1.87454186E-15  3.56672901E-01 -3.79392022E-02  3.50538307E-16
  7.57003638E-17 -1.99971386E-03  3.16133715E-16 -1.33474276E-01 -4.57822552E-02
 -1.33474276E-01 -4.57822552E-02 -2.98895684E-16  9.16933080E-16  6.53394835E-01
 -3.79247513E-16  2.09991360E-15  1.00537107E-15  4.96355793E-01 -1.89674450E-16
  4.70988732E-16 -3.05161843E-16 -3.74624960E-02 -6.56784141E-17 -1.78369885E-18
 -3.93015634E-17 -4.58135717E-16  3.91601650E-16  5.24619004E-17 -1.74995537E-15
 -9.32260505E-02  2.26049391E-01 -2.42677718E-16 -1.66645366E-13 -2.99349440E-01
  9.90418701E-01 -3.67611602E-16 -3.19782787E-13 -3.72107815E-01  1.54703574E-02
 -8.99522409E-17  3.67457547E-15 -2.52979516E-04 -8.29136316E-16 -1.63014002E-01
 -8.70882286E-01 -1.63014002E-01 -8.70882286E-01  4.31042429E-14 -1.45770216E-13
 -1.72174655E-16 -4.58212795E-01  1.55860665E-13 -3.53796584E-13 -3.14276775E-17
 -6.48965491E-01  1.31277537E-13 -6.48401541E-15  2.12087982E-16 -4.39079748E-03
 -3.42766536E-15  1.76385506E-16  2.10691386E-01  1.15040766E+00 -2.10691386E-01
 -1.15040766E+00 -1.24006489E-14  1.02342473E-13 -1.37514997E-15 -1.34514914E-01
 -1.67643827E-13 -1.25449066E-13  1.20830911E-15 -3.66084229E-01  1.12398062E-13
  3.18429751E-16 -4.44647189E-16 -2.20904488E-01  3.30601394E-14 -1.04907626E-16
  8.03987553E-01 -7.63065547E-01 -8.03987553E-01  7.63065547E-01  1.92131497E-02
 -6.66703496E-02  5.58851260E-15  7.35683726E-14  7.46667711E-01  2.26340973E-01
 -5.30907796E-15 -2.15043756E-13 -5.74213473E-01  1.47607218E-03 -7.67289509E-17
 -5.07921663E-14 -1.47657468E-01  1.65831346E-16  6.26627515E-01 -6.04700392E-01
  6.26627515E-01 -6.04700392E-01  5.18640253E-16 -4.30918175E-15 -9.53478495E-01
 -1.00647719E-15  1.87374314E-15  4.86068331E-15  1.04291538E+00  2.76216683E-15
  1.13762877E-15 -2.88285217E-16 -2.50597681E-02  4.41460669E-16 -1.44148932E-15
 -2.85210423E-16  5.09060552E-15 -5.25222223E-15  7.57550661E-15 -5.22271209E-15
  6.95082193E-02 -4.41455849E-01  4.72582704E-15  4.51587551E-14 -5.37087499E-01
  1.35748941E-01 -5.45435724E-15 -8.69515156E-14  1.06388947E+00 -4.92883897E-02
  5.57381161E-16 -7.30471725E-15 -1.74915523E-01 -5.17428659E-16  6.15596027E-01
 -1.96945850E-01  6.15596027E-01 -1.96945850E-01 -2.11026449E-15  1.07983379E-13
  1.84657052E-15 -9.42934807E-01  1.80651429E-14 -1.53730665E-13 -1.57652066E-15
  1.69075071E+00  4.73764519E-14 -4.93809624E-15  1.06572592E-16  1.84591961E-02
 -3.91441740E-14 -5.26700550E-16  2.29684525E-02 -1.03695081E+00 -2.29684525E-02
  1.03695081E+00  5.82174433E-02 -1.57274846E+00  1.99291408E-15 -6.94416010E-14
  1.98725252E-01  2.54989659E+00 -2.14827519E-15  1.39796192E-13 -7.01236246E-01
  6.69661801E-02 -1.01779459E-15 -1.25039386E-14  2.78178023E-01 -1.41033590E-15
 -1.93542916E-01 -6.90629334E-01 -1.93542916E-01 -6.90629334E-01  2.48919827E-04
  1.51483741E-01 -3.93645219E-16  2.23295628E-15 -1.86484547E-02 -3.11566510E-01
 -1.13415991E-15 -5.47010046E-15  1.86883304E-01  9.82317440E-01 -2.11832776E-14
  1.51094894E-15  1.26468542E-01  1.24913560E-14  1.02598365E-01  6.33414601E-02
  1.02598365E-01  6.33414601E-02  1.52055504E-16 -4.07912286E-15 -2.38596675E-17
 -7.60131029E-16 -1.12007836E-15  6.96911205E-15 -3.41885528E-17  2.46244813E-15
 -1.14844839E-15 -1.28389370E-14 -1.92591175E-14 -1.56845582E-16  5.12069860E-16
  1.00000000E+00 -7.15024990E-16 -3.69851447E-15  4.08206378E-16 -1.11420903E-15
  6.87045707E-17  1.76946542E-15  5.84445413E-04 -9.95683938E-17  5.43470164E-16
 -4.58990449E-15  4.47754466E-02  2.28999767E-17  2.89288237E-15  2.18585284E-14
  9.98983768E-01 -6.16657941E-16  3.92366009E-15  1.91123181E-14  2.38507774E-15
  1.04210999E-15  1.82749263E-15  9.19204468E-16 -1.70936525E-02 -6.05633092E-01
 -7.96570624E-18 -3.10343385E-15  5.65357720E-02  1.41955296E+00 -1.21935193E-16
  1.80217739E-14 -7.58076375E-01  1.76616635E-01  1.07040131E-15 -1.47335670E-14
 -1.06509521E+00  2.47136974E-15 -8.48143851E-01 -1.36652047E-01 -8.48143851E-01
 -1.36652047E-01 -5.08586847E-17 -1.16856310E-14 -9.62900536E-17  3.45605996E-02
  1.54895890E-15  2.65017073E-14 -3.47946707E-16 -8.76034741E-01 -1.25063894E-14
  1.14303329E-15  6.28515561E-16  1.27598127E+00 -1.01303159E-14  3.92447531E-16
  9.53832792E-01 -5.13045236E-02 -9.53832792E-01  5.13045236E-02
Total SCF Density                          R   N=         171
  2.08735734E+00 -1.95647832E-01  5.91198043E-01  4.45344497E-16 -5.15832757E-16
  5.33101278E-01  5.84772464E-16 -1.27657642E-15 -5.45022079E-16  6.85580683E-01
 -3.96466892E-02  1.09168337E-01 -1.15171969E-15 -1.68449747E-16  8.11964961E-01
 -2.69765055E-01  5.73047325E-01 -7.03555987E-16  8.80897141E-15  1.77270369E-01
  5.65734309E-01  2.02655558E-16 -5.04752867E-16  2.97957319E-01 -1.49757312E-16
 -9.82647142E-16 -6.29937708E-16  1.66532267E-01  2.55544352E-16 -2.20534393E-15
  1.07251550E-16  3.37228425E-01 -1.50873757E-15  2.71310614E-15  1.36036569E-16
  1.65887104E-01 -1.83657470E-02  6.91131960E-02 -2.77600420E-16 -2.88340179E-15
  4.60413348E-01  1.07303613E-01 -3.50596288E-16 -2.24393293E-15  2.61282271E-01
  3.51031072E-03 -9.97476254E-03 -1.66912777E-16  1.12546973E-16 -5.32355514E-02
 -1.40732830E-02 -7.19601462E-17  1.60641907E-16 -3.01821234E-02  3.58965889E-03
 -2.74935155E-17  7.63050786E-17 -2.83057920E-02  1.51682574E-16  4.07454328E-16
  1.14544865E-16 -1.58204796E-02  5.47350868E-17  2.10666949E-16 -1.37298104E-17
  1.50293742E-03  9.53532374E-16 -3.44587892E-17 -1.11289409E-16 -5.75124944E-02
  4.38846970E-17 -9.09141025E-16 -7.51971031E-17 -2.82891637E-02  2.61434988E-16
 -1.03700057E-17 -4.38466928E-18  4.82467905E-03  6.34107103E-03 -1.33354319E-02
  3.06491159E-17 -1.61543855E-17  8.09508810E-03 -1.24711816E-02  2.10526149E-17
  2.27024314E-18  4.34690961E-03 -6.15747091E-04  1.53461785E-18  5.67949710E-18
  7.26079490E-04  1.33741369E-17 -3.70682651E-17  4.79472639E-16  8.72109004E-17
 -1.32572217E-16 -3.87461920E-17  2.67983568E-16  4.32335824E-17 -6.95108034E-17
  1.04423984E-17 -2.54583010E-17 -7.29673040E-18 -3.67420252E-18  8.31599907E-31
 -3.55548309E-02  7.80692732E-02  4.69189294E-16  2.63186520E-01 -2.00965735E-01
  5.68080771E-02  3.72891052E-16  1.29502301E-01 -1.12729237E-01  1.27451954E-02
 -6.21092406E-17 -2.20758447E-02 -4.79633850E-03  6.02570275E-17  1.70395202E-01
  2.38149562E-02 -4.29585030E-02  6.63334721E-16  5.58125859E-02 -4.70722611E-02
 -4.55424445E-02  4.12773160E-16  2.74801031E-02 -2.71537685E-02  3.27724749E-03
 -4.49302387E-17 -4.68051895E-03  4.32995316E-04  1.47657191E-17  2.65414191E-02
  9.74608604E-03 -3.55548309E-02  7.80692732E-02  6.46160945E-16 -2.63186520E-01
 -2.00965735E-01  5.68080771E-02  3.53740650E-16 -1.29502301E-01 -1.12729237E-01
  1.27451954E-02 -1.66288878E-16  2.20758447E-02 -4.79633850E-03 -1.01007695E-17
 -3.21209400E-02 -1.65796030E-02  1.70395202E-01  2.38149562E-02 -4.29585030E-02
 -4.54901225E-16 -5.58125859E-02 -4.70722611E-02 -4.55424445E-02 -2.36933851E-16
 -2.74801031E-02 -2.71537685E-02  3.27724749E-03 -5.86776127E-18  4.68051895E-03
  4.32995316E-04 -1.47980985E-18 -1.65796030E-02  4.96616192E-04  2.65414191E-02
  9.74608604E-03
Spin SCF Density                           R   N=         171
  1.26492256E-03 -6.23804160E-03  2.67749372E-02 -1.86549499E-16  4.42294295E-16
  5.33101278E-01 -4.31570128E-16 -1.75535006E-15 -5.25605927E-16  2.24768812E-02
  1.76975952E-03 -1.73186758E-03  1.72749300E-15  7.34204436E-16  1.78557658E-02
 -2.08332599E-04  6.32301365E-03  5.39255826E-16  4.43727412E-15 -1.13535421E-02
 -1.41139282E-02 -1.64775435E-16  3.83197128E-16  2.97957319E-01 -2.65517538E-16
  9.89666513E-16  4.43838932E-16  1.66532267E-01 -7.47071541E-16 -1.43785938E-15
  1.16873696E-16  8.61122982E-03  9.75766184E-16  1.74544853E-15  7.86687774E-17
  3.03287161E-03  2.30305410E-03 -3.47249294E-03  1.39478513E-15 -1.75702153E-15
  1.27507887E-03 -9.84999905E-03  7.99022083E-16 -4.97226479E-16 -4.33141852E-03
  2.69348444E-03 -7.10487822E-03 -3.44829689E-16  1.15934828E-16 -2.98927207E-03
 -6.23716579E-03 -1.92116084E-16  3.88940706E-17 -1.19341374E-03  3.78969943E-04
  1.91570620E-17 -3.74074662E-17 -2.83057920E-02  1.69080346E-17 -3.14011051E-17
 -4.15469819E-17 -1.58204796E-02 -1.20557097E-17 -4.38602654E-17  1.36408760E-17
  1.50293742E-03  7.61961813E-16  1.29557274E-16 -1.12914093E-16 -2.02600312E-03
 -1.38318047E-16 -4.22778604E-16 -6.55106426E-17 -7.91485215E-04  1.06936874E-16
 -2.80643583E-18  6.89285060E-18  1.81739730E-04 -4.80535766E-03  1.22017952E-02
  2.09226304E-17 -1.46256504E-16  3.35217453E-03  1.22962626E-02  3.52106619E-18
 -8.46113769E-17  2.00074292E-03 -1.17166558E-04  1.42372601E-18  8.99536280E-18
 -5.56121390E-04  3.71299057E-17 -1.10171110E-16  4.79472639E-16 -9.11612169E-17
 -5.36962672E-16 -1.51056689E-16  2.67983568E-16 -4.51630528E-17 -3.03586570E-16
  3.59046760E-17 -2.54583010E-17  7.62890101E-18 -5.29960716E-18  5.77179786E-31
  1.46444993E-03 -1.99594557E-03 -1.47629943E-16 -3.75153682E-03  2.06028800E-03
 -2.13930262E-03 -5.66516155E-17 -2.78533677E-03  3.01868823E-03 -9.22459271E-04
 -1.45530141E-17  2.60712813E-04  1.60560390E-03  8.85724042E-17 -1.04466436E-02
  1.16046157E-03 -2.81432674E-03  4.49230522E-16 -5.62164690E-03  2.84671755E-03
 -6.79754621E-04  2.40786735E-16 -2.96512313E-03  2.19292566E-03  3.71149004E-04
 -2.66338140E-17  4.60109130E-04 -8.63771893E-04  2.46528411E-17 -4.34992697E-03
 -1.12788144E-03  1.46444993E-03 -1.99594557E-03  1.37094343E-17  3.75153682E-03
  2.06028800E-03 -2.13930262E-03  1.73985035E-17  2.78533677E-03  3.01868823E-03
 -9.22459271E-04 -1.02233844E-17 -2.60712813E-04  1.60560390E-03  1.61825023E-16
  1.95357008E-03  1.99079341E-03 -1.04466436E-02  1.16046157E-03 -2.81432674E-03
 -6.72603101E-16  5.62164690E-03  2.84671755E-03 -6.79754621E-04 -3.87470721E-16
  2.96512313E-03  2.19292566E-03  3.71149004E-04  3.74014365E-17 -4.60109130E-04
 -8.63771893E-04  4.14584095E-17  1.99079341E-03  1.00597950E-03 -4.34992697E-03
 -1.12788144E-03
Mulliken Charges                           R   N=           3
 -1.29641694E-01  5.64820847E-01  5.64820847E-01
ONIOM Charges                              I   N=          16
           1           0           0           0           0           0
           0           0           0           0           0           0
           0           0           0           0
ONIOM Multiplicities                       I   N=          16
           2           0           0           0           0           0
           0           0           0           0           0           0
           0           0           0           0
Atom Layers                                I   N=           3
           1           1           1
Atom Modifiers                             I   N=           3
           0           0           0
Force Field                                I                0
Int Atom Modified Types                    I   N=           3
           0           0           0
Link Atoms                                 I   N=           3
           0           0           0
Atom Modified MM Charges                   R   N=           3
  0.00000000E+00  0.00000000E+00  0.00000000E+00
Link Distances                             R   N=          12
  0.00000000E+00  0.00000000E+00  0.00000000E+00  0.00000000E+00  0.00000000E+00
  0.00000000E+00  0.00000000E+00  0.00000000E+00  0.00000000E+00  0.00000000E+00
  0.00000000E+00  0.00000000E+00
Cartesian Gradient                         R   N=           9
  0.00000000E+00  0.00000000E+00  0.00000000E+00  0.00000000E+00  0.00000000E+00
  0.00000000E+00  0.00000000E+00  0.00000000E+00  0.00000000E+00
Dipole Moment                              R   N=           3
  7.31586548E-16  8.38858063E-15 -9.07028734E-01
Quadrupole Moment                          R   N=           6
 -7.43479319E-01  1.13921366E+00 -3.95734340E-01 -6.50595802E-16  2.13014257E-15
 -6.57801721E-15
Anisotropic Hyperfine tensors              R   N=          18
  3.91960717E+00  0.00000000E+00 -1.93456823E+00  1.86944330E-14  3.29163780E-16
 -1.98503895E+00 -5.12102064E-02  3.40781798E-16  7.00008593E-02 -1.12302471E-16
 -1.54906948E-01 -1.87906529E-02 -5.12102064E-02 -3.40781798E-16  7.00008593E-02
 -1.12302471E-16  1.54906948E-01 -1.87906529E-02
Isotropic Hyperfine splittings             R   N=           3
  1.95925381E-01 -1.52826229E-02 -1.52826229E-02
QEq coupling tensors                       R   N=          18
 -1.72317607E+00  0.00000000E+00  1.45348463E-01 -1.14008783E-14 -2.63677968E-15
  1.57782761E+00  2.03836644E-01 -1.39461331E-16 -1.87059648E-01  4.99093555E-17
  3.16917413E-01 -1.67769961E-02  2.03836644E-01  1.39461331E-16 -1.87059648E-01
  4.99093555E-17 -3.16917413E-01 -1.67769961E-02
