Calculo de punto sencillo de H2O^-1 a nivel de teoria UCCSD/6-31G(d), op
SP        UCCSD-FC                                                    6-31G(d)            
Number of atoms                            I                3
Info1-9                                    I   N=           9
          12          12           0           0           0         110
           1          14         301
Full Title                                 C   N=          11
Calculo de punto sencillo de H2O^-1 a nivel de teoria UCCSD/
6-31G(d), optimizada geometricamente a nivel de teoria B3LYP
/6-311G(d,p)
Route                                      C   N=           4
# UCCSD/6-31g(d) NoSymm 5D Density=Current      
Charge                                     I               -1
Multiplicity                               I                2
Number of electrons                        I               11
Number of alpha electrons                  I                6
Number of beta electrons                   I                5
Number of basis functions                  I               18
Number of independent functions            I               18
Number of point charges in /Mol/           I                0
Number of translation vectors              I                0
Atomic numbers                             I   N=           3
           8           1           1
Nuclear charges                            R   N=           3
  8.00000000E+00  1.00000000E+00  1.00000000E+00
Current cartesian coordinates              R   N=           9
  0.00000000E+00  0.00000000E+00  2.24244351E-01  0.00000000E+00  1.43041685E+00
 -8.96979292E-01  0.00000000E+00 -1.43041685E+00 -8.96979292E-01
Number of symbols in /Mol/                 I                0
Force Field                                I                0
Atom Types                                 C   N=           3
                                    
Int Atom Types                             I   N=           3
           0           0           0
MM charges                                 R   N=           3
  0.00000000E+00  0.00000000E+00  0.00000000E+00
Integer atomic weights                     I   N=           3
          16           1           1
Real atomic weights                        R   N=           3
  1.59949146E+01  1.00782504E+00  1.00782504E+00
Atom fragment info                         I   N=           3
           0           0           0
Atom residue num                           I   N=           3
           0           0           0
Nuclear spins                              I   N=           3
           0           1           1
Nuclear ZEff                               R   N=           3
 -5.60000000E+00 -1.00000000E+00 -1.00000000E+00
Nuclear ZNuc                               R   N=           3
  8.00000000E+00  1.00000000E+00  1.00000000E+00
Nuclear QMom                               R   N=           3
  0.00000000E+00  0.00000000E+00  0.00000000E+00
Nuclear GFac                               R   N=           3
  0.00000000E+00  2.79284600E+00  2.79284600E+00
MicOpt                                     I   N=           3
          -1          -1          -1
Number of residues                         I                0
Number of secondary structures             I                0
Number of contracted shells                I                8
Number of primitive shells                 I               19
Pure/Cartesian d shells                    I                0
Pure/Cartesian f shells                    I                0
Highest angular momentum                   I                2
Largest degree of contraction              I                6
Shell types                                I   N=           8
           0          -1          -1          -2           0           0
           0           0
Number of primitives per shell             I   N=           8
           6           3           1           1           3           1
           3           1
Shell to atom map                          I   N=           8
           1           1           1           1           2           2
           3           3
Primitive exponents                        R   N=          19
  5.48467166E+03  8.25234946E+02  1.88046958E+02  5.29645000E+01  1.68975704E+01
  5.79963534E+00  1.55396162E+01  3.59993359E+00  1.01376175E+00  2.70005823E-01
  8.00000000E-01  1.87311370E+01  2.82539436E+00  6.40121692E-01  1.61277759E-01
  1.87311370E+01  2.82539436E+00  6.40121692E-01  1.61277759E-01
Contraction coefficients                   R   N=          19
  1.83107443E-03  1.39501722E-02  6.84450781E-02  2.32714336E-01  4.70192898E-01
  3.58520853E-01 -1.10777550E-01 -1.48026263E-01  1.13076702E+00  1.00000000E+00
  1.00000000E+00  3.34946043E-02  2.34726953E-01  8.13757326E-01  1.00000000E+00
  3.34946043E-02  2.34726953E-01  8.13757326E-01  1.00000000E+00
P(S=P) Contraction coefficients            R   N=          19
  0.00000000E+00  0.00000000E+00  0.00000000E+00  0.00000000E+00  0.00000000E+00
  0.00000000E+00  7.08742682E-02  3.39752839E-01  7.27158577E-01  1.00000000E+00
  0.00000000E+00  0.00000000E+00  0.00000000E+00  0.00000000E+00  0.00000000E+00
  0.00000000E+00  0.00000000E+00  0.00000000E+00  0.00000000E+00
Coordinates of each shell                  R   N=          24
  0.00000000E+00  0.00000000E+00  2.24244351E-01  0.00000000E+00  0.00000000E+00
  2.24244351E-01  0.00000000E+00  0.00000000E+00  2.24244351E-01  0.00000000E+00
  0.00000000E+00  2.24244351E-01  0.00000000E+00  1.43041685E+00 -8.96979292E-01
  0.00000000E+00  1.43041685E+00 -8.96979292E-01  0.00000000E+00 -1.43041685E+00
 -8.96979292E-01  0.00000000E+00 -1.43041685E+00 -8.96979292E-01
Num ILSW                                   I              100
ILSW                                       I   N=         100
           1           0           0           0           2           0
           0           0           0           0           0          -1
           5           0           0           0           0           0
           0           0           1           0           0           0
           1           1           0           0           0           0
           0           0      100000           0          -1           0
           0           0           0           0           0           0
           0           0           0           1           1           0
           0 -2000000000           1           0           0           0
           0           0           4          52           0           0
           0           0           0           0           0           0
           0           0           0           0           4           1
           0           0           0           0           0           0
           0           0           0           0           0           0
           0           0           0           0           0           0
           0           0           0           0           0           0
           0           0           0           0
Num RLSW                                   I               52
RLSW                                       R   N=          52
  1.00000000E+00  1.00000000E+00  1.00000000E+00  1.00000000E+00  1.00000000E+00
  0.00000000E+00  0.00000000E+00  1.00000000E+00  0.00000000E+00  0.00000000E+00
  0.00000000E+00  0.00000000E+00  1.00000000E+00  0.00000000E+00  0.00000000E+00
  0.00000000E+00  0.00000000E+00  1.00000000E+00  0.00000000E+00  0.00000000E+00
  0.00000000E+00  0.00000000E+00  1.00000000E+00  0.00000000E+00  0.00000000E+00
  0.00000000E+00  0.00000000E+00  1.00000000E+00  0.00000000E+00  0.00000000E+00
  0.00000000E+00  0.00000000E+00  1.00000000E+00  0.00000000E+00  0.00000000E+00
  0.00000000E+00  0.00000000E+00  0.00000000E+00  1.00000000E+00  1.00000000E+00
  0.00000000E+00  1.00000000E+00  0.00000000E+00  0.00000000E+00  0.00000000E+00
  0.00000000E+00  0.00000000E+00  0.00000000E+00  0.00000000E+00  0.00000000E+00
  0.00000000E+00  0.00000000E+00
MxBond                                     I                2
NBond                                      I   N=           3
           2           1           1
IBond                                      I   N=           6
           2           3           1           0           1           0
RBond                                      R   N=           6
  1.00000000E+00  1.00000000E+00  1.00000000E+00  0.00000000E+00  1.00000000E+00
  0.00000000E+00
Virial Ratio                               R      1.991145310003304E+00
SCF Energy                                 R     -7.580613449769012E+01
MP2 Energy                                 R     -7.600063210027118E+01
MP3 Energy                                 R     -7.600547386425691E+01
MP4D Energy                                R     -7.600892247301300E+01
MP4DQ Energy                               R     -7.600741531095196E+01
MP4SDQ Energy                              R     -7.600805791044822E+01
Cluster Energy                             R     -7.600841262414120E+01
Total Energy                               R     -7.600841262414120E+01
PUHF Energy                                R     -7.580779310677546E+01
PMP2-0 Energy                              R     -7.600163987989653E+01
PMP3-0 Energy                              R     -7.600600216653254E+01
Post-SCF wavefunction norm                 R      1.030266375830907E+00
S**2                                       R      7.572607203854131E-01
S**2 after annihilation                    R      7.500178654460880E-01
S**2 corrected to first order              R      7.515541728244755E-01
RMS Density                                R      3.293879450050045E-09
Job Status                                 I                1
Nuclear derivative order                   I                0
External E-field                           R   N=          35
  0.00000000E+00  0.00000000E+00  0.00000000E+00  0.00000000E+00  0.00000000E+00
  0.00000000E+00  0.00000000E+00  0.00000000E+00  0.00000000E+00  0.00000000E+00
  0.00000000E+00  0.00000000E+00  0.00000000E+00  0.00000000E+00  0.00000000E+00
  0.00000000E+00  0.00000000E+00  0.00000000E+00  0.00000000E+00  0.00000000E+00
  0.00000000E+00  0.00000000E+00  0.00000000E+00  0.00000000E+00  0.00000000E+00
  0.00000000E+00  0.00000000E+00  0.00000000E+00  0.00000000E+00  0.00000000E+00
  0.00000000E+00  0.00000000E+00  0.00000000E+00  0.00000000E+00  0.00000000E+00
IOpCl                                      I                1
IROHF                                      I                0
Alpha Orbital Energies                     R   N=          18
 -2.02087815E+01 -1.02652461E+00 -3.61731996E-01 -2.67132060E-01 -1.73846837E-01
  1.91087469E-01  5.37897018E-01  1.33765110E+00  1.46833252E+00  1.46954948E+00
  1.49178851E+00  1.69322063E+00  1.96442716E+00  2.34403845E+00  2.36403359E+00
  2.38915843E+00  2.95108351E+00  3.26058666E+00
Beta Orbital Energies                      R   N=          18
 -2.01953902E+01 -9.80441322E-01 -3.55117813E-01 -2.36086896E-01 -1.58094995E-01
  5.38800999E-01  6.22468625E-01  1.34942392E+00  1.49129455E+00  1.50539542E+00
  1.52633768E+00  1.70139499E+00  1.99690440E+00  2.35306408E+00  2.36190656E+00
  2.39875498E+00  2.96029374E+00  3.27626642E+00
Alpha MO coefficients                      R   N=         324
  9.95791323E-01  2.18770548E-02 -9.09882807E-17 -4.45203641E-16 -1.12258702E-03
 -7.87770799E-03 -8.86166393E-17 -1.23890297E-15  1.58044160E-03  9.39121275E-05
  1.77248336E-18  6.04392050E-16  3.18520926E-04  4.95706352E-18  2.60921407E-04
  1.80990807E-03  2.60921407E-04  1.80990807E-03 -2.15534767E-01  4.83175494E-01
 -7.91853193E-17  2.61083397E-16 -1.14276443E-01  4.82702562E-01 -8.83082151E-17
 -1.33402589E-15 -4.47239427E-02  7.16468654E-03 -1.57384106E-17  5.18615914E-17
 -1.21829100E-02  8.34052111E-17  1.20706322E-01 -3.34820471E-03  1.20706322E-01
 -3.34820471E-03  3.28924326E-16  5.10132766E-16  6.07246050E-16  4.75127593E-01
 -2.44234201E-15 -5.58387994E-15  5.13978391E-16  2.77770197E-01 -5.09871834E-16
  1.07926308E-16 -1.94051550E-16 -4.07618942E-02  1.24769914E-16  5.10407094E-17
  2.16166541E-01  2.11568612E-01 -2.16166541E-01 -2.11568612E-01 -6.66893015E-02
  1.31539178E-01  3.43353282E-17  1.90825131E-15  5.57957069E-01  3.11734211E-01
 -3.59372962E-17  1.07802187E-16  4.19067082E-01 -2.45533964E-02  3.76213584E-17
 -2.62464649E-16  6.15622732E-03 -1.31120940E-16 -1.27462754E-01 -7.84028571E-02
 -1.27462754E-01 -7.84028571E-02  1.43557514E-17 -7.92352897E-17  6.23757502E-01
 -3.74846685E-16  2.03775721E-16 -6.50121069E-17  5.28665008E-01 -7.41491848E-17
  7.52072804E-17  3.34798549E-17 -2.60423690E-02  3.54775915E-17 -1.28583017E-17
  1.52497511E-16  1.46488859E-16 -3.35049447E-16  4.28019812E-16  3.90443691E-16
 -8.59537184E-02  1.13984834E-01  1.71208868E-16  4.37952808E-15 -2.26064976E-01
  1.16697341E+00 -5.83388804E-18  1.06430121E-14 -4.66843103E-01  1.51750284E-02
 -1.37217599E-17 -6.50524665E-16 -6.21770786E-03 -4.57205267E-17 -7.13559234E-02
 -9.82919346E-01 -7.13559234E-02 -9.82919346E-01 -1.01764254E-15  2.46131541E-15
 -9.47786358E-18 -3.41799800E-01 -4.36637983E-15  1.07216151E-14 -5.03133016E-17
 -8.59864748E-01 -5.90022835E-15  4.13737113E-18 -5.99563963E-17  3.20623993E-02
  1.45607020E-16 -2.75683632E-16  8.10343581E-03  1.40702048E+00 -8.10343581E-03
 -1.40702048E+00 -1.80100740E-15  1.97056360E-14  2.05653313E-15 -3.50858962E-02
 -2.38202101E-15 -2.13326781E-14 -2.19022188E-15 -7.47731058E-01 -2.44867336E-15
  5.33487299E-16 -3.19292843E-16 -1.95776520E-01  2.18753835E-15  1.37115839E-15
  8.38099347E-01 -3.78417209E-01 -8.38099347E-01  3.78417209E-01  1.88203031E-14
 -3.17382085E-14 -9.73003537E-01  2.33312050E-15  1.39764961E-12  2.06157159E-13
  1.02778618E+00 -4.92138536E-15 -1.09033226E-12 -6.31552672E-15 -8.75265065E-04
 -7.74424102E-16 -2.07950146E-13  4.27364937E-16  8.26577092E-13 -7.36498208E-13
  8.23833344E-13 -7.39142322E-13  1.05206063E-02 -1.16451219E-02  1.54911635E-12
 -3.49852483E-15  8.85098220E-01  1.26953709E-01 -1.63544048E-12 -1.74014484E-15
 -7.00479819E-01 -4.46058859E-03  9.95840773E-16 -2.89433785E-15 -1.28371223E-01
  3.21040960E-16  5.07295538E-01 -4.59952886E-01  5.07295538E-01 -4.59952886E-01
  8.09506122E-02 -5.45471201E-01  2.47484631E-14 -3.66400511E-15 -4.05952882E-01
  2.43580186E-01 -2.58059312E-14 -7.05386786E-15  9.10573586E-01 -1.29406282E-02
  6.57183573E-16 -4.20449019E-15 -1.79753890E-01 -1.33128468E-15  7.18374540E-01
 -2.85378246E-01  7.18374540E-01 -2.85378246E-01 -1.93944457E-16  2.53258999E-15
 -2.35854982E-15 -1.05155873E+00 -9.57703690E-16 -1.81933256E-15  2.88937382E-15
  1.47403141E+00 -2.05738471E-16 -1.51958976E-15  3.38691821E-16 -2.88580721E-02
  5.15385748E-17 -8.92811230E-16  1.40685958E-01 -9.03638875E-01 -1.40685958E-01
  9.03638875E-01  6.02933743E-02 -1.58396003E+00 -4.63959598E-17 -8.87867157E-16
  2.23842618E-01  2.50789440E+00  1.71753817E-17 -5.52796484E-16 -7.56031442E-01
  1.64903190E-02 -7.66921718E-16 -6.47912720E-15  2.57783529E-01  4.13141824E-16
 -2.53429148E-01 -6.20655414E-01 -2.53429148E-01 -6.20655414E-01  1.40037284E-03
  7.31773309E-02  1.33666962E-15 -2.68929061E-15  8.69555953E-03 -1.62486197E-01
 -1.86112212E-15  3.30306008E-15  9.24500983E-02  9.87593474E-01  8.77513441E-16
 -5.31606701E-16  1.37645982E-01 -2.55653695E-13  6.95259021E-02  2.62950094E-02
  6.95259021E-02  2.62950094E-02  3.66281805E-16  1.61089559E-14 -1.45779498E-15
 -1.61146213E-15  1.78355262E-16 -3.64546893E-14 -2.28263575E-15  3.40381963E-15
  2.32264489E-14  2.55307693E-13 -1.28850020E-13  9.92648110E-17  3.05695190E-14
  1.00000000E+00  1.35717211E-14  6.74923350E-15  1.72830241E-14  5.43292185E-15
 -4.54720186E-17 -2.42545354E-15  1.53977152E-02  1.12874065E-16  1.53389901E-15
  5.35477681E-15  1.46722564E-02 -2.29707559E-15 -3.72309527E-15 -6.08950784E-16
  9.99660457E-01  1.83919549E-15 -2.44096202E-15  1.29870199E-13 -1.12773205E-15
 -6.63663872E-16 -4.23526074E-15 -7.11684693E-16 -2.06720457E-02 -5.65441064E-01
 -1.37921997E-15  7.35009478E-16  4.26211168E-02  1.36793082E+00  6.52545357E-16
 -6.81009502E-16 -7.33949052E-01  1.67979192E-01 -3.00262046E-15 -1.99459139E-15
 -1.07071470E+00 -5.32922587E-15 -8.50787734E-01 -1.18060327E-01 -8.50787734E-01
 -1.18060327E-01  4.42354068E-16 -7.06466552E-15 -5.73479383E-16  1.85876655E-02
  1.80401330E-15  1.19246303E-14  7.48285105E-16 -8.45151972E-01 -4.14929060E-15
  1.03888016E-15 -2.02049846E-15  1.27974909E+00 -7.63999837E-16  3.44257888E-16
  9.41192755E-01 -4.71286106E-02 -9.41192755E-01  4.71286106E-02
Beta MO coefficients                       R   N=         324
  9.95793910E-01  2.18951718E-02 -9.04011673E-17  2.89280519E-16 -9.44131248E-04
 -7.94733150E-03 -8.95765864E-17 -6.60092331E-17  1.55201527E-03 -6.34194635E-05
 -1.26664608E-18 -1.85661288E-16  2.49795736E-04 -4.54459485E-19  2.72849918E-04
  1.84038678E-03  2.72849918E-04  1.84038678E-03 -2.15522215E-01  4.62835845E-01
  2.07367518E-16  1.21132654E-15 -5.96978414E-02  5.11583413E-01  1.08440622E-16
  5.18211432E-17 -3.64417099E-02  1.06462534E-03  4.55017393E-18 -2.44949977E-16
 -1.65986125E-02  5.04466647E-17  1.21754639E-01 -3.96795271E-03  1.21754639E-01
 -3.96795271E-03  4.41011648E-16  1.04491917E-15  7.22283015E-16  5.08500034E-01
 -2.85876040E-15 -4.79400835E-15  6.18750166E-16  3.32370653E-01 -8.97860718E-16
  7.59895681E-17 -9.69428460E-18 -4.41279152E-02 -4.48512647E-17  1.20788422E-16
  2.11936637E-01  1.10968963E-01 -2.11936637E-01 -1.10968963E-01 -5.88967450E-02
  1.40981657E-01 -2.74712046E-15  1.54198778E-15  5.44823782E-01  2.57183934E-01
 -1.84535078E-15  6.27809895E-16  4.30069862E-01 -2.32106895E-02  6.59957113E-17
 -4.35738486E-16  9.27075574E-03 -7.00616253E-17 -1.42786362E-01 -7.42530804E-02
 -1.42786362E-01 -7.42530804E-02 -1.67789283E-16  6.61415643E-16  6.17069364E-01
 -5.60392693E-16  1.87428513E-15  2.91269514E-16  5.35840425E-01 -7.63282203E-17
  2.01300184E-15 -3.75856800E-16 -2.10736340E-02  7.58042677E-17 -1.25263746E-17
  1.73842288E-16 -7.35327856E-16 -2.51583969E-16 -2.32431285E-16  2.59576389E-16
 -8.73553504E-02  9.48441925E-02 -3.78694033E-16  8.87109974E-15 -1.84829819E-01
  1.21557520E+00 -5.33565760E-16  3.14109649E-14 -5.17590935E-01  8.47258678E-03
 -1.73422846E-16 -1.12852116E-15 -9.98766989E-03 -1.64599848E-16 -3.54065682E-02
 -1.01733644E+00 -3.54065682E-02 -1.01733644E+00 -3.13702276E-15  1.02791830E-14
 -2.05006351E-18 -3.09725877E-01 -7.74144857E-15  2.92420154E-14 -6.52157977E-17
 -8.34098645E-01 -1.64987460E-14  1.85426867E-16 -1.23487182E-16  1.50166601E-02
  2.20217427E-16 -1.13934626E-16  3.06429362E-02  1.40927060E+00 -3.06429362E-02
 -1.40927060E+00 -9.46612565E-16  1.34366084E-14  1.89834389E-15 -4.57030177E-02
  2.35518928E-15 -1.60292192E-14 -2.02953725E-15 -7.08477508E-01 -1.43907429E-18
  6.84037926E-17  7.38644191E-16 -2.01543258E-01  7.88146951E-16  1.29105554E-15
  8.36258285E-01 -4.14149035E-01 -8.36258285E-01  4.14149035E-01  1.92508615E-15
 -1.35230041E-14 -9.77379886E-01  2.46465734E-15 -2.57233934E-14  3.79737964E-15
  1.02388034E+00 -5.00259013E-15  3.77358042E-14 -5.81712426E-16 -1.26970210E-02
 -7.67656554E-16 -3.36959334E-15  1.37845312E-15  1.41394271E-14  7.71909051E-17
  1.16391032E-14 -2.81865348E-15  6.52833629E-02 -5.02912532E-01  3.23692266E-14
 -3.50210786E-15 -7.62096062E-01  2.30411311E-01 -3.35834766E-14 -7.59274843E-16
  1.10537154E+00 -1.69397988E-02  8.54900565E-16 -1.08121124E-15 -1.00657262E-01
  1.85045568E-15  4.05884036E-01 -7.71027107E-02  4.05884036E-01 -7.71027107E-02
  4.92933354E-02 -1.56801775E-01 -7.28713105E-16 -8.40262779E-16  6.10057907E-01
 -2.23382831E-02  1.43370618E-15  1.06736528E-15 -1.24872789E-01  1.68719985E-04
 -1.69173068E-15  3.14301139E-16 -2.14528220E-01 -2.85915868E-16  7.89913237E-01
 -4.42142235E-01  7.89913237E-01 -4.42142235E-01  2.15083109E-16 -1.21412358E-14
 -2.36765063E-15 -1.04557594E+00  4.71241661E-15  2.04469509E-14  3.18405714E-15
  1.49647416E+00 -9.54568331E-15  7.92633954E-17  9.86015956E-16 -3.38809279E-02
  3.78719178E-16 -3.83751562E-16  1.24028884E-01 -9.02658992E-01 -1.24028884E-01
  9.02658992E-01  6.61718735E-02 -1.58876705E+00 -2.24639478E-15  7.52213826E-15
  2.92998909E-01  2.47169331E+00  2.30211309E-15 -1.38040255E-14 -7.60406054E-01
  3.67439622E-02 -8.87851255E-16 -7.61336364E-15  2.59090894E-01  1.55274467E-15
 -1.96731704E-01 -6.37141821E-01 -1.96731704E-01 -6.37141821E-01 -1.52160892E-03
  1.15759087E-01 -4.43931762E-16 -6.66796613E-16 -1.49395973E-02 -2.18991425E-01
  2.02790140E-16  2.39109505E-15  1.22223737E-01  9.85797811E-01  2.67182076E-14
  5.94479231E-17  1.41347399E-01  1.70243991E-13  7.51755959E-02  4.02392771E-02
  7.51755959E-02  4.02392771E-02 -6.19928042E-17 -1.45728399E-14  2.80385671E-15
 -3.96985081E-16  4.33284594E-15  3.07468162E-14 -1.71978154E-15  2.35453805E-15
 -2.16730606E-14 -1.68603924E-13 -7.05213121E-15  1.27529101E-16 -2.27992860E-14
  1.00000000E+00 -1.40572373E-14 -5.10483111E-15 -9.79712753E-15 -6.82620353E-15
  5.89634129E-17 -4.17865563E-15  5.94260850E-04  1.67951154E-15  3.35923788E-15
  8.62553088E-15  2.42996908E-02 -2.69520281E-15 -5.66223642E-15 -2.68388723E-14
  9.99697298E-01  2.17365792E-15 -3.58691305E-15  6.83167611E-15 -3.63731326E-16
 -1.02638746E-15 -7.74508376E-16 -5.75062656E-15 -1.97855079E-02 -5.80739343E-01
 -5.58518435E-16  2.13926425E-15  4.56483324E-02  1.39223830E+00  2.01721776E-17
  2.82546707E-15 -7.41217990E-01  1.75657545E-01  6.94249348E-16 -1.49187696E-14
 -1.06635911E+00  1.73580672E-15 -8.55975384E-01 -1.24990342E-01 -8.55975384E-01
 -1.24990342E-01  1.50590596E-16 -1.41794322E-14 -5.78257831E-16  1.02666524E-02
  2.24154545E-15  2.90425045E-14  7.52858834E-16 -8.45641625E-01 -1.28262374E-14
  2.49824584E-15 -2.01620618E-15  1.27893242E+00 -1.06777694E-14  3.54134046E-16
  9.45660238E-01 -4.22065934E-02 -9.45660238E-01  4.22065934E-02
Orthonormal basis                          R   N=         324
  5.29754065E-02  1.89461880E-01  1.49362543E-17 -3.35486742E-18 -6.69700749E-02
  2.51236217E-01  1.35518565E-18 -9.25816485E-18 -1.20849292E-01  4.87833645E-03
  2.47099600E-41  2.23599194E-18 -3.69260726E-02  0.00000000E+00  1.75470646E-01
  2.29903206E-01  1.75470646E-01  2.29903206E-01 -1.16325562E-17 -6.58901910E-17
 -1.87005569E-16  2.68325350E-01 -1.28533227E-16  4.85780520E-17 -1.74669666E-16
  3.84743925E-01 -7.19499310E-18  2.30620600E-18  0.00000000E+00 -1.46940550E-01
  2.48291752E-17  8.51823152E-27  2.63043966E-01  1.64872903E-01 -2.63043966E-01
 -1.64872903E-01  1.60443675E-01  2.83112581E-01 -5.21363531E-16 -2.23330231E-17
  4.34919400E-01  2.50156487E-01 -4.85128078E-16  3.22707207E-17  4.69165754E-01
 -1.01789698E-02 -3.01473852E-34 -2.50624074E-17  7.70486787E-02 -9.20025184E-39
 -1.19353201E-01  1.22196686E-02 -1.19353201E-01  1.22196686E-02  2.94501229E-16
  1.51477136E-16  5.77057836E-01  8.15514239E-17  5.40596917E-16  3.04196926E-16
  5.77057836E-01  1.07455254E-16  4.46154812E-16  3.08902191E-16  0.00000000E+00
 -1.55000667E-16 -2.15202737E-18  8.64061504E-23  4.81626948E-17  1.10232176E-16
 -2.23647552E-16 -9.36255094E-17  2.23952472E-16  9.04984783E-17  7.04320615E-17
  3.71794071E-01 -2.37805857E-16  2.05025886E-16  1.24632135E-16  2.61844932E-01
 -1.22835269E-16 -1.75076115E-17  2.07075254E-16  7.71569925E-01  8.77193847E-16
 -4.04443856E-19 -1.81983420E-01  2.61085026E-02  1.81983420E-01 -2.61085026E-02
  3.15893995E-01  1.46468835E-01 -1.33065838E-17 -3.17719327E-16 -2.83268783E-01
  4.15160948E-02  1.48495688E-17 -4.72993607E-16 -1.70028837E-01 -1.04236456E-01
 -3.78195859E-31 -8.60443103E-16  7.89007274E-01  2.95465515E-33 -1.63295414E-01
 -1.62743978E-02 -1.63295414E-01 -1.62743978E-02 -5.86699879E-16 -1.94856467E-16
 -4.96839318E-16 -1.58878029E-16  2.02736103E-16  1.13878702E-17 -5.09699174E-16
  3.29357135E-17  1.41841441E-16  9.91385951E-01 -2.99760217E-15 -8.16508468E-17
  1.30972884E-01  3.81639165E-17  7.24183019E-17  1.89633706E-16  5.75448936E-17
  1.32032596E-16 -1.48814957E-19 -2.23316938E-17 -8.25726340E-17  4.83151405E-16
  3.46729218E-18  4.78926249E-17  8.46201253E-17 -4.25712544E-16 -1.80188971E-17
  2.74667063E-15  9.99745759E-01 -4.27985915E-16  3.57696225E-16 -2.25481319E-02
 -8.32034355E-17  1.67666044E-17  6.58153076E-17 -4.66861543E-17 -1.95880234E-32
 -2.71647456E-30  1.29016799E-17  3.37083419E-17  4.56880336E-31  5.86821241E-30
 -1.28804234E-17 -2.19481171E-17 -2.14681081E-30  2.31527533E-17  2.25481319E-02
 -4.48733220E-17  3.05873092E-18  9.99745759E-01 -5.83177734E-17  7.12251629E-17
  5.83177734E-17 -7.12251629E-17  8.46564390E-01  1.09580183E-01 -8.39513415E-17
 -3.49265403E-17 -1.82140862E-01 -9.90599974E-02 -3.37657817E-16  2.06138853E-17
 -4.64414193E-02  5.58675926E-02 -2.48545899E-30  1.60792325E-16 -4.22884072E-01
  3.26216493E-32  1.53745747E-02 -1.73583623E-01  1.53745747E-02 -1.73583623E-01
 -4.03283660E-15  6.24809024E-15 -2.69242281E-16  9.77582480E-01 -6.67087868E-15
  1.96325667E-15  2.83024204E-16 -3.67265104E-01  2.68178536E-15  3.45469975E-17
 -5.83964829E-16 -3.88658620E-01 -2.32039806E-15 -3.38530335E-17 -1.35912137E-01
 -3.23325175E-01  1.35912137E-01  3.23325175E-01  4.25677672E-01 -6.64752309E-01
 -3.39857333E-16  9.50397551E-15  7.07377863E-01 -2.12328485E-01  2.64608812E-16
 -3.52107704E-15 -2.78763464E-01 -2.84277950E-02  1.97171531E-24 -3.44152432E-15
  2.15181309E-01 -4.44702104E-26  1.17365301E-01  2.98648100E-01  1.17365301E-01
  2.98648100E-01  1.27954153E-16 -6.53893567E-16  1.00152416E+00  5.76054382E-16
 -1.26080264E-16 -6.04946335E-17 -1.00152416E+00 -3.92136433E-16 -8.65094581E-17
  1.19919685E-16  2.45700865E-17 -2.02745382E-17 -2.13688837E-16  6.28994214E-16
 -5.00925053E-16  3.85202750E-16 -6.97485745E-16  1.09282124E-15  1.73928222E-01
 -7.88921240E-01 -4.90638727E-16 -4.48015719E-18 -7.18841665E-01  2.21751494E-01
  8.10023572E-16 -6.61987595E-18  8.86674979E-01  4.73234577E-03  7.18261134E-23
 -4.57655025E-16 -3.58210110E-02 -1.61995663E-24 -1.23816322E-01  4.03787724E-01
 -1.23816322E-01  4.03787724E-01  6.37476142E-02 -2.71729300E-01  1.22817184E-15
  3.26376588E-16 -2.57814251E-02  1.58874362E-01 -8.08415174E-16 -8.89079203E-18
  5.75308467E-01 -7.21345329E-02 -2.99992030E-20 -7.24163459E-16  5.46015025E-01
  6.76598005E-22  1.08671698E+00 -6.19544299E-01  1.08671698E+00 -6.19544299E-01
  9.56718679E-17 -4.67396003E-16 -4.75799010E-16 -3.73804382E-02 -2.18816538E-16
  6.39436457E-17  7.37061726E-16 -7.08252621E-01  5.72685028E-16  2.60231494E-16
 -6.41249393E-16  8.80666428E-01  4.77888394E-16 -1.90265913E-16  1.21933106E+00
 -6.96123288E-01 -1.21933106E+00  6.96123288E-01  1.54189416E-16  3.31394088E-16
  1.98067978E-17 -5.31630969E-01  3.93897894E-16 -2.11789738E-15  9.70684440E-17
  1.84650475E+00  7.02189415E-16 -1.14781937E-16  7.77184746E-17 -3.68873890E-01
  4.79775628E-16  1.22530744E-16 -2.17462769E-01 -1.53930513E+00  2.17462769E-01
  1.53930513E+00 -9.70852153E-03 -1.45199034E+00 -3.74082030E-16 -3.00602965E-16
  2.25473471E-01  3.11415411E+00 -4.53591368E-16  1.46028970E-15 -1.17197327E+00
  4.36782995E-02 -2.44053114E-16 -4.36685269E-16 -3.30618455E-01  5.50434124E-18
 -5.65882864E-01 -9.72450955E-01 -5.65882864E-01 -9.72450955E-01
Total SCF Density                          R   N=         171
  2.09141526E+00 -1.87177501E-01  4.98804506E-01 -1.58043893E-16  4.92005946E-17
  7.69848021E-01 -6.86585741E-16  2.42470971E-15  7.61856970E-17  4.84318514E-01
 -1.44282544E-02  4.15442868E-02 -2.35715569E-16 -1.80125042E-15  6.75879507E-01
 -3.66297570E-01  6.79943590E-01 -2.87535798E-16  1.75835405E-15 -3.54431957E-02
  2.01999331E+00 -1.52517038E-16  5.05934422E-17  6.60409475E-01  6.03904114E-17
  9.17251389E-17 -3.56641284E-16  5.66611652E-01 -1.74408703E-15  1.15569923E-15
  3.15389616E-16  3.00986773E-01 -3.48158818E-15  8.86361469E-15  2.68322450E-16
  1.87626533E-01  7.46273466E-03  2.41351821E-02  3.77808235E-17 -1.33659522E-15
  5.80953749E-01 -3.43805004E-01  3.12159486E-16 -5.03777409E-15  5.81852923E-01
 -4.31924928E-05 -8.17078285E-04 -1.45878176E-16  7.68343108E-17 -3.06583754E-02
  8.08812596E-03 -1.40593816E-16  1.89909745E-16 -2.77152753E-02  1.42436587E-03
  8.60849969E-19 -4.67354922E-18 -2.92480170E-02 -7.55573837E-17  1.67704440E-17
  2.96986005E-18 -2.50597942E-02 -5.35842996E-17  6.71361170E-18  4.27733795E-18
  1.12230303E-03  5.24795838E-16 -3.16165693E-16  1.22805622E-17 -4.18061471E-02
 -2.88499758E-18 -6.17434353E-16  1.11198645E-17 -2.59892634E-02  7.39827300E-17
 -8.86756594E-19  5.81630541E-18  3.60880492E-03  6.34699913E-03 -1.21484116E-02
 -4.46000065E-17  1.19305132E-17  1.22739723E-02 -1.73292948E-02 -3.15773481E-17
 -2.49600406E-17  1.06202796E-02 -5.65634779E-04  1.64405176E-18 -1.13717125E-18
  5.86607025E-04 -7.56483199E-18  3.14099829E-17  2.02394217E-16  8.56717663E-17
 -1.13543229E-16 -4.62160988E-17  1.73771824E-16  5.43241147E-17 -6.92969941E-17
  4.80360609E-18 -7.63488522E-18 -7.41065727E-18 -3.02445506E-18  1.04389402E-31
 -2.86823519E-02  6.96563332E-02  3.13269220E-16  2.10476475E-01 -1.53844004E-01
 -3.91786443E-02  1.96650003E-16  1.30486141E-01 -9.13461086E-02  6.35543850E-03
 -4.69059980E-17 -1.81636796E-02 -5.15611794E-03  8.28229178E-17  1.62765829E-01
  9.92992424E-02 -1.36193658E-01 -1.23492254E-16  1.56949807E-01  1.38619095E-01
 -1.19425331E+00  1.05809306E-17  9.56502815E-02  3.94379109E-01 -1.12954673E-02
 -2.24308181E-17 -1.35207664E-02  5.04814697E-03  8.41532238E-17  1.59099041E-01
  1.03489998E+00 -2.86823519E-02  6.96563332E-02  2.30509308E-16 -2.10476475E-01
 -1.53844004E-01 -3.91786443E-02  1.30476358E-16 -1.30486141E-01 -9.13461086E-02
  6.35543850E-03  2.31684638E-17  1.81636796E-02 -5.15611794E-03  9.55734655E-18
 -2.05243942E-02  2.05941534E-02  1.62765829E-01  9.92992424E-02 -1.36193658E-01
  2.27210528E-16 -1.56949807E-01  1.38619095E-01 -1.19425331E+00  3.13216632E-16
 -9.56502815E-02  3.94379109E-01 -1.12954673E-02  3.21655793E-17  1.35207664E-02