 Entering Gaussian System, Link 0=g16
 Initial command:
 /opt/g16/l1.exe "/scratch/1507/Gau-454750.inp" -scrdir="/scratch/1507/"
 Entering Link 1 = /opt/g16/l1.exe PID=    454751.
  
 Copyright (c) 1988-2017, Gaussian, Inc.  All Rights Reserved.
  
 This is part of the Gaussian(R) 16 program.  It is based on
 the Gaussian(R) 09 system (copyright 2009, Gaussian, Inc.),
 the Gaussian(R) 03 system (copyright 2003, Gaussian, Inc.),
 the Gaussian(R) 98 system (copyright 1998, Gaussian, Inc.),
 the Gaussian(R) 94 system (copyright 1995, Gaussian, Inc.),
 the Gaussian 92(TM) system (copyright 1992, Gaussian, Inc.),
 the Gaussian 90(TM) system (copyright 1990, Gaussian, Inc.),
 the Gaussian 88(TM) system (copyright 1988, Gaussian, Inc.),
 the Gaussian 86(TM) system (copyright 1986, Carnegie Mellon
 University), and the Gaussian 82(TM) system (copyright 1983,
 Carnegie Mellon University). Gaussian is a federally registered
 trademark of Gaussian, Inc.
  
 This software contains proprietary and confidential information,
 including trade secrets, belonging to Gaussian, Inc.
  
 This software is provided under written license and may be
 used, copied, transmitted, or stored only in accord with that
 written license.
  
 The following legend is applicable only to US Government
 contracts under FAR:
  
                    RESTRICTED RIGHTS LEGEND
  
 Use, reproduction and disclosure by the US Government is
 subject to restrictions as set forth in subparagraphs (a)
 and (c) of the Commercial Computer Software - Restricted
 Rights clause in FAR 52.227-19.
  
 Gaussian, Inc.
 340 Quinnipiac St., Bldg. 40, Wallingford CT 06492
  
  
 ---------------------------------------------------------------
 Warning -- This program may not be used in any manner that
 competes with the business of Gaussian, Inc. or will provide
 assistance to any competitor of Gaussian, Inc.  The licensee
 of this program is prohibited from giving any competitor of
 Gaussian, Inc. access to this program.  By using this program,
 the user acknowledges that Gaussian, Inc. is engaged in the
 business of creating and licensing software in the field of
 computational chemistry and represents and warrants to the
 licensee that it is not a competitor of Gaussian, Inc. and that
 it will not use this program in any manner prohibited above.
 ---------------------------------------------------------------
  

 Cite this work as:
 Gaussian 16, Revision B.01,
 M. J. Frisch, G. W. Trucks, H. B. Schlegel, G. E. Scuseria, 
 M. A. Robb, J. R. Cheeseman, G. Scalmani, V. Barone, 
 G. A. Petersson, H. Nakatsuji, X. Li, M. Caricato, A. V. Marenich, 
 J. Bloino, B. G. Janesko, R. Gomperts, B. Mennucci, H. P. Hratchian, 
 J. V. Ortiz, A. F. Izmaylov, J. L. Sonnenberg, D. Williams-Young, 
 F. Ding, F. Lipparini, F. Egidi, J. Goings, B. Peng, A. Petrone, 
 T. Henderson, D. Ranasinghe, V. G. Zakrzewski, J. Gao, N. Rega, 
 G. Zheng, W. Liang, M. Hada, M. Ehara, K. Toyota, R. Fukuda, 
 J. Hasegawa, M. Ishida, T. Nakajima, Y. Honda, O. Kitao, H. Nakai, 
 T. Vreven, K. Throssell, J. A. Montgomery, Jr., J. E. Peralta, 
 F. Ogliaro, M. J. Bearpark, J. J. Heyd, E. N. Brothers, K. N. Kudin, 
 V. N. Staroverov, T. A. Keith, R. Kobayashi, J. Normand, 
 K. Raghavachari, A. P. Rendell, J. C. Burant, S. S. Iyengar, 
 J. Tomasi, M. Cossi, J. M. Millam, M. Klene, C. Adamo, R. Cammi, 
 J. W. Ochterski, R. L. Martin, K. Morokuma, O. Farkas, 
 J. B. Foresman, and D. J. Fox, Gaussian, Inc., Wallingford CT, 2016.
 
 ******************************************
 Gaussian 16:  ES64L-G16RevB.01 20-Dec-2017
                 4-Feb-2021 
 ******************************************
 %chk=H2Onodiffci_N-1.chk
 %mem=32GB
 %nprocshared=16
 Will use up to   16 processors via shared memory.
 ------------------------------------------
 # UCISD/6-31g(d) NoSymm 5D Density=Current
 ------------------------------------------
 1/30=1,38=1,172=1/1;
 2/12=2,15=1,17=6,18=5,40=1/2;
 3/5=1,6=6,7=1,8=1,11=2,25=1,30=1,71=1,116=2/1,2,3;
 4//1;
 5/5=2,38=5/2;
 8/6=4,9=120000,10=2/1,4;
 9/15=1/13;
 11/28=-4,31=1,32=3,42=3/11;
 10/5=3,13=10,31=1/2;
 6/7=2,8=2,9=2,10=2,22=-1/1;
 99/5=1,9=1/99;
 ----------------------------------------------------------------------
 Calculo de punto sencillo de H2O^+1 a nivel de teoria UCISD/6-31G(d), 
 optimizada geometricamente a nivel de teoria B3LYP/6-311G(d,p)
 ----------------------------------------------------------------------
 Symbolic Z-matrix:
 Charge =  1 Multiplicity = 2
 O                     0.        0.        0.11867 
 H                     0.        0.75694  -0.47466 
 H                     0.       -0.75694  -0.47466 
 
                          Input orientation:                          
 ---------------------------------------------------------------------
 Center     Atomic      Atomic             Coordinates (Angstroms)
 Number     Number       Type             X           Y           Z
 ---------------------------------------------------------------------
      1          8           0        0.000000    0.000000    0.118665
      2          1           0        0.000000    0.756944   -0.474661
      3          1           0        0.000000   -0.756944   -0.474661
 ---------------------------------------------------------------------
                    Distance matrix (angstroms):
                    1          2          3
     1  O    0.000000
     2  H    0.961769   0.000000
     3  H    0.961769   1.513888   0.000000
 Symmetry turned off by external request.
 Stoichiometry    H2O(1+,2)
 Framework group  C2V[C2(O),SGV(H2)]
 Deg. of freedom     2
 Full point group                 C2V     NOp   4
 Rotational constants (GHZ):         801.9747679         437.5972249         283.1154099
 Standard basis: 6-31G(d) (5D, 7F)
    18 basis functions,    36 primitive gaussians,    19 cartesian basis functions
     5 alpha electrons        4 beta electrons
       nuclear repulsion energy         9.1529448664 Hartrees.
 NAtoms=    3 NActive=    3 NUniq=    3 SFac= 1.00D+00 NAtFMM=   60 NAOKFM=F Big=F
 Integral buffers will be    131072 words long.
 Raffenetti 2 integral format.
 Two-electron integral symmetry is turned off.
 One-electron integrals computed using PRISM.
 NBasis=    18 RedAO= T EigKep=  6.30D-02  NBF=    18
 NBsUse=    18 1.00D-06 EigRej= -1.00D+00 NBFU=    18
 ExpMin= 1.61D-01 ExpMax= 5.48D+03 ExpMxC= 8.25D+02 IAcc=3 IRadAn=         5 AccDes= 0.00D+00
 Harris functional with IExCor=  205 and IRadAn=       5 diagonalized for initial guess.
 HarFok:  IExCor=  205 AccDes= 0.00D+00 IRadAn=         5 IDoV= 1 UseB2=F ITyADJ=14
 ICtDFT=  3500011 ScaDFX=  1.000000  1.000000  1.000000  1.000000
 FoFCou: FMM=F IPFlag=           0 FMFlag=      100000 FMFlg1=           0
         NFxFlg=           0 DoJE=T BraDBF=F KetDBF=T FulRan=T
         wScrn=  0.000000 ICntrl=       500 IOpCl=  0 I1Cent=   200000004 NGrid=           0
         NMat0=    1 NMatS0=      1 NMatT0=    0 NMatD0=    1 NMtDS0=    0 NMtDT0=    0
 Symmetry not used in FoFCou.
 Initial guess <Sx>= 0.0000 <Sy>= 0.0000 <Sz>= 0.5000 <S**2>= 0.7500 S= 0.5000
 Keep R1 and R2 ints in memory in canonical form, NReq=3319220.
 Requested convergence on RMS density matrix=1.00D-08 within 128 cycles.
 Requested convergence on MAX density matrix=1.00D-06.
 Requested convergence on             energy=1.00D-06.
 No special actions if energy rises.
 SCF Done:  E(UHF) =  -75.6106818549     A.U. after   11 cycles
            NFock= 11  Conv=0.70D-08     -V/T= 1.9990
 <Sx>= 0.0000 <Sy>= 0.0000 <Sz>= 0.5000 <S**2>= 0.7567 S= 0.5033
 <L.S>=  0.00000000000    
 Annihilation of the first spin contaminant:
 S**2 before annihilation     0.7567,   after     0.7500
 ExpMin= 1.61D-01 ExpMax= 5.48D+03 ExpMxC= 8.25D+02 IAcc=3 IRadAn=         5 AccDes= 0.00D+00
 HarFok:  IExCor=  205 AccDes= 0.00D+00 IRadAn=         5 IDoV=-2 UseB2=F ITyADJ=14
 ICtDFT= 12500011 ScaDFX=  1.000000  1.000000  1.000000  1.000000
 Range of M.O.s used for correlation:     2    18
 NBasis=    18 NAE=     5 NBE=     4 NFC=     1 NFV=     0
 NROrb=     17 NOA=     4 NOB=     3 NVA=    13 NVB=    14
 Semi-Direct transformation.
 ModeAB=           2 MOrb=             4 LenV=    4294788581
 LASXX=         7561 LTotXX=        7561 LenRXX=        7561
 LTotAB=        9486 MaxLAS=       12920 LenRXY=       12920
 NonZer=       15122 LenScr=      785920 LnRSAI=           0
 LnScr1=           0 LExtra=           0 Total=       806401
 MaxDsk=          -1 SrtSym=           F ITran=            4
 JobTyp=1 Pass  1:  I=   1 to   4.
 (rs|ai) integrals will be sorted in core.
 ModeAB=           2 MOrb=             3 LenV=    4294788581
 LASXX=         5991 LTotXX=        5991 LenRXX=        9690
 LTotAB=        4368 MaxLAS=        9690 LenRXY=        4368
 NonZer=       11982 LenScr=      785920 LnRSAI=           0
 LnScr1=           0 LExtra=           0 Total=       799978
 MaxDsk=          -1 SrtSym=           F ITran=            4
 JobTyp=2 Pass  1:  I=   1 to   3.
 (rs|ai) integrals will be sorted in core.
 Spin components of T(2) and E(2):
     alpha-alpha T2 =       0.5325941309D-02 E2=     -0.2182768450D-01
     alpha-beta  T2 =       0.2622089032D-01 E2=     -0.1035836915D+00
     beta-beta   T2 =       0.2564434436D-02 E2=     -0.1026196642D-01
 ANorm=    0.1016912615D+01
 E2 =    -0.1356733424D+00 EUMP2 =    -0.75746355197319D+02
 (S**2,0)=  0.75668D+00           (S**2,1)=  0.75122D+00
 E(PUHF)=      -0.75613776567D+02        E(PMP2)=      -0.75748189136D+02
 Keep R2 and R3 ints in memory in canonical form, NReq=3321876.
 CIDS: In Core Option IDoMem=           1.
 Iterations=  50 Convergence= 0.100D-07
 Produce multiple copies of IABC intergrals
 Iteration Nr.   1
 **********************
 DD1Dir will call FoFMem   1 times, MxPair=        34
 NAB=    12 NAA=     6 NBB=     3.
 E(PMP3)=      -0.75760575414D+02
 E3=       -0.13183033D-01        EUMP3=      -0.75759538230D+02
 DE(CI)=     -0.14394872     E(CI)=       -75.754630575    
 NORM(A)=   0.10195476D+01
 Iteration Nr.   2
 **********************
 DD1Dir will call FoFMem   1 times, MxPair=        34
 NAB=    12 NAA=     6 NBB=     3.
 DE(CI)=     -0.14679491     E(CI)=       -75.757476765    
 NORM(A)=   0.10209204D+01
 Iteration Nr.   3
 **********************
 DD1Dir will call FoFMem   1 times, MxPair=        34
 NAB=    12 NAA=     6 NBB=     3.
 DE(CI)=     -0.14780638     E(CI)=       -75.758488239    
 NORM(A)=   0.10212029D+01
 Iteration Nr.   4
 **********************
 DD1Dir will call FoFMem   1 times, MxPair=        34
 NAB=    12 NAA=     6 NBB=     3.
 DE(CI)=     -0.14802158     E(CI)=       -75.758703436    
 NORM(A)=   0.10212637D+01
 Iteration Nr.   5
 **********************
 DD1Dir will call FoFMem   1 times, MxPair=        34
 NAB=    12 NAA=     6 NBB=     3.
 DE(CI)=     -0.14804393     E(CI)=       -75.758725783    
 NORM(A)=   0.10212750D+01
 Iteration Nr.   6
 **********************
 DD1Dir will call FoFMem   1 times, MxPair=        34
 NAB=    12 NAA=     6 NBB=     3.
 DE(CI)=     -0.14804705     E(CI)=       -75.758728908    
 NORM(A)=   0.10212764D+01
 Iteration Nr.   7
 **********************
 DD1Dir will call FoFMem   1 times, MxPair=        34
 NAB=    12 NAA=     6 NBB=     3.
 DE(CI)=     -0.14804745     E(CI)=       -75.758729309    
 NORM(A)=   0.10212763D+01
 Iteration Nr.   8
 **********************
 DD1Dir will call FoFMem   1 times, MxPair=        34
 NAB=    12 NAA=     6 NBB=     3.
 DE(CI)=     -0.14804752     E(CI)=       -75.758729373    
 NORM(A)=   0.10212762D+01
 Iteration Nr.   9
 **********************
 DD1Dir will call FoFMem   1 times, MxPair=        34
 NAB=    12 NAA=     6 NBB=     3.
 DE(CI)=     -0.14804744     E(CI)=       -75.758729300    
 NORM(A)=   0.10212761D+01
 Iteration Nr.  10
 **********************
 DD1Dir will call FoFMem   1 times, MxPair=        34
 NAB=    12 NAA=     6 NBB=     3.
 DE(CI)=     -0.14804737     E(CI)=       -75.758729228    
 NORM(A)=   0.10212761D+01
 Iteration Nr.  11
 **********************
 DD1Dir will call FoFMem   1 times, MxPair=        34
 NAB=    12 NAA=     6 NBB=     3.
 DE(CI)=     -0.14804733     E(CI)=       -75.758729189    
 NORM(A)=   0.10212761D+01
 Iteration Nr.  12
 **********************
 DD1Dir will call FoFMem   1 times, MxPair=        34
 NAB=    12 NAA=     6 NBB=     3.
 DE(CI)=     -0.14804732     E(CI)=       -75.758729179    
 NORM(A)=   0.10212761D+01
 Wavefunction amplitudes converged. E(Corr)=     -75.758729179    
 ***************************************************************
 Largest amplitude= 3.50D-02

 S**2, projected HF & approx projected MPn energies after annihilation of
 unwanted spin states (see manual for definitions):

 spins       (S**2,0) (S**2,1)    PUHF        PMP2        PMP3        PMP4
 annihilated
 s+1         0.74998  0.75001  -75.613777  -75.748189  -75.760575
 s+1,s+2     0.75000  0.75000  -75.613772  -75.748184  -75.760571
 s+1 to s+3  0.75000  0.75000  -75.613772  -75.748184  -75.760571

 Discarding MO integrals.
          Differentiating once with respect to electric field.
                with respect to dipole field.
          Electric field/nuclear overlap derivatives assumed to be zero.
 Keep R1 and R2 ints in memory in canonical form, NReq=3319677.
          There are     1 degrees of freedom in the 1st order CPHF.  IDoFFX=0 NUNeed=     1.
 LinEq1:  Iter=  0 NonCon=     1 RMS=2.90D-03 Max=1.25D-02 NDo=     1
 AX will form     1 AO Fock derivatives at one time.
 LinEq1:  Iter=  1 NonCon=     1 RMS=8.02D-04 Max=4.18D-03 NDo=     1
 LinEq1:  Iter=  2 NonCon=     1 RMS=2.58D-04 Max=1.22D-03 NDo=     1
 LinEq1:  Iter=  3 NonCon=     1 RMS=4.50D-05 Max=2.89D-04 NDo=     1
 LinEq1:  Iter=  4 NonCon=     1 RMS=4.35D-06 Max=2.17D-05 NDo=     1
 LinEq1:  Iter=  5 NonCon=     1 RMS=4.40D-07 Max=1.74D-06 NDo=     1
 LinEq1:  Iter=  6 NonCon=     1 RMS=5.40D-08 Max=2.96D-07 NDo=     1
 LinEq1:  Iter=  7 NonCon=     1 RMS=8.46D-09 Max=3.86D-08 NDo=     1
 LinEq1:  Iter=  8 NonCon=     1 RMS=9.68D-10 Max=4.64D-09 NDo=     1
 LinEq1:  Iter=  9 NonCon=     1 RMS=1.16D-10 Max=4.42D-10 NDo=     1
 LinEq1:  Iter= 10 NonCon=     0 RMS=1.86D-11 Max=9.51D-11 NDo=     1
 Linear equations converged to 1.000D-10 1.000D-09 after    10 iterations.
 End of Minotr F.D. properties file   721 does not exist.
 End of Minotr F.D. properties file   722 does not exist.
 End of Minotr F.D. properties file   788 does not exist.

 **********************************************************************

            Population analysis using the CI Density.

 **********************************************************************

 Alpha  occ. eigenvalues --  -21.13878  -1.91493  -1.21955  -1.13391  -1.10054
 Alpha virt. eigenvalues --   -0.12844  -0.04023   0.61196   0.64511   0.70785
 Alpha virt. eigenvalues --    0.74890   0.91864   1.17666   1.49589   1.52444
 Alpha virt. eigenvalues --    1.53121   2.11368   2.46405
  Beta  occ. eigenvalues --  -21.09370  -1.75733  -1.18066  -1.04775
  Beta virt. eigenvalues --   -0.31612  -0.11307  -0.03103   0.60805   0.73804
  Beta virt. eigenvalues --    0.77883   0.84101   0.94443   1.22797   1.55668
  Beta virt. eigenvalues --    1.59551   1.62921   2.18932   2.47762
          Condensed to atoms (all electrons):
               1          2          3
     1  O    7.715353   0.223452   0.223452
     2  H    0.223452   0.202379  -0.006960
     3  H    0.223452  -0.006960   0.202379
          Atomic-Atomic Spin Densities.
               1          2          3
     1  O    1.090835  -0.013494  -0.013494
     2  H   -0.013494  -0.020076   0.001646
     3  H   -0.013494   0.001646  -0.020076
 Mulliken charges and spin densities:
               1          2
     1  O   -0.162257   1.063848
     2  H    0.581129  -0.031924
     3  H    0.581129  -0.031924
 Sum of Mulliken charges =   1.00000   1.00000
 Mulliken charges and spin densities with hydrogens summed into heavy atoms:
               1          2
     1  O    1.000000   1.000000
 Electronic spatial extent (au):  <R**2>=             14.6445
 Charge=              1.0000 electrons
 Dipole moment (field-independent basis, Debye):
    X=              0.0000    Y=             -0.0000    Z=             -2.3470  Tot=              2.3470
 Quadrupole moment (field-independent basis, Debye-Ang):
   XX=             -4.8221   YY=             -2.2819   ZZ=             -4.3838
   XY=              0.0000   XZ=              0.0000   YZ=              0.0000
 Traceless Quadrupole moment (field-independent basis, Debye-Ang):
   XX=             -0.9928   YY=              1.5473   ZZ=             -0.5545
   XY=              0.0000   XZ=              0.0000   YZ=              0.0000
 Octapole moment (field-independent basis, Debye-Ang**2):
  XXX=             -0.0000  YYY=              0.0000  ZZZ=             -1.6925  XYY=             -0.0000
  XXY=              0.0000  XXZ=             -0.2914  XZZ=             -0.0000  YZZ=              0.0000
  YYZ=             -1.8237  XYZ=             -0.0000
 Hexadecapole moment (field-independent basis, Debye-Ang**3):
 XXXX=             -2.7849 YYYY=             -2.9366 ZZZZ=             -4.3683 XXXY=              0.0000
 XXXZ=              0.0000 YYYX=              0.0000 YYYZ=              0.0000 ZZZX=              0.0000
 ZZZY=              0.0000 XXYY=             -1.2831 XXZZ=             -1.2412 YYZZ=             -0.7919
 XXYZ=              0.0000 YYXZ=              0.0000 ZZXY=              0.0000
 N-N= 9.152944866370D+00 E-N=-1.934585544721D+02  KE= 7.572902702808D+01
                          Isotropic Fermi Contact Couplings
        Atom                 a.u.       MegaHertz       Gauss      10(-4) cm-1
     1  O(17)              0.25312    -153.44053     -54.75140     -51.18225
     2  H(1)              -0.01900     -84.92834     -30.30454     -28.32905
     3  H(1)              -0.01900     -84.92834     -30.30454     -28.32905
 --------------------------------------------------------
       Center         ----  Spin Dipole Couplings  ----
                      3XX-RR        3YY-RR        3ZZ-RR
 --------------------------------------------------------
     1   Atom        3.806507     -1.875911     -1.930596
     2   Atom       -0.051224      0.070885     -0.019661
     3   Atom       -0.051224      0.070885     -0.019661
 --------------------------------------------------------
                        XY            XZ            YZ
 --------------------------------------------------------
     1   Atom        0.000000      0.000000     -0.000000
     2   Atom        0.000000     -0.000000     -0.156755
     3   Atom       -0.000000     -0.000000      0.156755
 --------------------------------------------------------


 ---------------------------------------------------------------------------------
              Anisotropic Spin Dipole Couplings in Principal Axis System
 ---------------------------------------------------------------------------------

       Atom             a.u.   MegaHertz   Gauss  10(-4) cm-1        Axes

              Baa    -1.9306   139.697    49.847    46.598 -0.0000  0.0000  1.0000
     1 O(17)  Bbb    -1.8759   135.740    48.435    45.278 -0.0000  1.0000 -0.0000
              Bcc     3.8065  -275.436   -98.282   -91.876  1.0000 -0.0000  0.0000
 
              Baa    -0.1375   -73.390   -26.187   -24.480 -0.0000  0.6011  0.7992
     2 H(1)   Bbb    -0.0512   -27.331    -9.752    -9.117  1.0000  0.0000  0.0000
              Bcc     0.1888   100.721    35.940    33.597  0.0000  0.7992 -0.6011
 
              Baa    -0.1375   -73.390   -26.187   -24.480 -0.0000 -0.6011  0.7992
     3 H(1)   Bbb    -0.0512   -27.331    -9.752    -9.117  1.0000 -0.0000  0.0000
              Bcc     0.1888   100.721    35.940    33.597 -0.0000  0.7992  0.6011
 

 ---------------------------------------------------------------------------------

 1\1\GINC-N001\SP\UCISD-FC\6-31G(d)\H2O1(1+,2)\JORGE\04-Feb-2021\0\\# U
 CISD/6-31g(d) NoSymm 5D Density=Current\\Calculo de punto sencillo de 
 H2O^+1 a nivel de teoria UCISD/6-31G(d), optimizada geometricamente a 
 nivel de teoria B3LYP/6-311G(d,p)\\1,2\O,0,0.,0.,0.118665\H,0,0.,0.756
 944,-0.474661\H,0,0.,-0.756944,-0.474661\\Version=ES64L-G16RevB.01\HF=
 -75.6106819\MP2=-75.7463552\MP3=-75.7595382\PUHF=-75.6137766\PMP2-0=-7
 5.7481891\PMP3-0=-75.7605754\CISD=-75.7587292\S2=0.756678\S2-1=0.75122
 4\S2A=0.750026\RMSD=7.009e-09\Dipole=0.,0.,-0.9233738\Quadrupole=-0.73
 81216,1.1503915,-0.4122699,0.,0.,0.\PG=C02V [C2(O1),SGV(H2)]\\@


 EXPERIMENTALISTS THINK SILICON IS REALLY FUN TO USE
     ITS PLACE IN NOVEL COMPOUNDS IS CERTAIN TO AMUSE
 THEY SIT ALL DAY IN LABORATORIES MAKING ALL THIS SLUDGE
     "LOADED WITH THE SILICON THEY SAY", TO ME IT LOOKS LIKE FUDGE.
 FOR HAPPY THOUGH THEY BE WITH CRUD, I'D LIKE TO KNOW A LITTLE
      ABOUT THE PI BONDS ON THE EDGE AND SIGMAS IN THE MIDDLE.

 SO LETS DERIVE A WAVEFUNCTION.....6-31G*
     USE AN OPTIMAL GEOMETRY AND SEE WHERE ELECTRONS ARE.
 BUT WHAT OF CORRELATION?  ASKS THE WIRY LITTLE SKEPTIC.
     WE'LL THROW IN PERTURBATION AS AN ELECTRON ANTISEPTIC.
 AND WHEN THE PROGRAM GIVES US ANSWERS IN THEM WE CAN TRUST
     SINCE NOBODY CAN MAKE THE STUFF, WE HAVE NO CHOICE, WE MUST.

 SO THEORY GUYS HAVE GOT IT MADE, IN ROOMS FREE OF POLLUTION.
     INSTEAD OF PROBLEMS WITH THE REFLUX, THEY HAVE ONLY SOLUTIONS.
 AND WHEN THE FEDS ANNOUNCE THE LIST OF CARCINOGENIC TERRORS,
     THE THEORISTS SIT SAFELY AT THEIR TERMINALS FIXING ERRORS.
 IN OTHER WORDS, EXPERIMENTALISTS WILL LIKELY DIE OF CANCER
     FROM WORKING HARD YET FRUITLESSLY...TILL THEORY GIVES THE ANSWER.
          -- THOMAS A. HOLME, 1983
 Job cpu time:       0 days  0 hours  0 minutes 25.5 seconds.
 Elapsed time:       0 days  0 hours  0 minutes  1.9 seconds.
 File lengths (MBytes):  RWF=     13 Int=      0 D2E=      0 Chk=      1 Scr=      1
 Normal termination of Gaussian 16 at Thu Feb  4 21:11:31 2021.
