Calculo de punto sencillo de H2O^-1 a nivel de teoria UCISD/6-31G(d), op
SP        UCISD-FC                                                    6-31G(d)            
Number of atoms                            I                3
Info1-9                                    I   N=           9
          12          12           0           0           0         110
           1           5         301
Full Title                                 C   N=          11
Calculo de punto sencillo de H2O^-1 a nivel de teoria UCISD/
6-31G(d), optimizada geometricamente a nivel de teoria B3LYP
/6-311G(d,p)
Route                                      C   N=           4
# UCISD/6-31g(d) NoSymm 5D Density=Current      
Charge                                     I               -1
Multiplicity                               I                2
Number of electrons                        I               11
Number of alpha electrons                  I                6
Number of beta electrons                   I                5
Number of basis functions                  I               18
Number of independent functions            I               18
Number of point charges in /Mol/           I                0
Number of translation vectors              I                0
Atomic numbers                             I   N=           3
           8           1           1
Nuclear charges                            R   N=           3
  8.00000000E+00  1.00000000E+00  1.00000000E+00
Current cartesian coordinates              R   N=           9
  0.00000000E+00  0.00000000E+00  2.24244351E-01  0.00000000E+00  1.43041685E+00
 -8.96979292E-01  0.00000000E+00 -1.43041685E+00 -8.96979292E-01
Number of symbols in /Mol/                 I                0
Force Field                                I                0
Atom Types                                 C   N=           3
                                    
Int Atom Types                             I   N=           3
           0           0           0
MM charges                                 R   N=           3
  0.00000000E+00  0.00000000E+00  0.00000000E+00
Integer atomic weights                     I   N=           3
          16           1           1
Real atomic weights                        R   N=           3
  1.59949146E+01  1.00782504E+00  1.00782504E+00
Atom fragment info                         I   N=           3
           0           0           0
Atom residue num                           I   N=           3
           0           0           0
Nuclear spins                              I   N=           3
           0           1           1
Nuclear ZEff                               R   N=           3
 -5.60000000E+00 -1.00000000E+00 -1.00000000E+00
Nuclear ZNuc                               R   N=           3
  8.00000000E+00  1.00000000E+00  1.00000000E+00
Nuclear QMom                               R   N=           3
  0.00000000E+00  0.00000000E+00  0.00000000E+00
Nuclear GFac                               R   N=           3
  0.00000000E+00  2.79284600E+00  2.79284600E+00
MicOpt                                     I   N=           3
          -1          -1          -1
Number of residues                         I                0
Number of secondary structures             I                0
Number of contracted shells                I                8
Number of primitive shells                 I               19
Pure/Cartesian d shells                    I                0
Pure/Cartesian f shells                    I                0
Highest angular momentum                   I                2
Largest degree of contraction              I                6
Shell types                                I   N=           8
           0          -1          -1          -2           0           0
           0           0
Number of primitives per shell             I   N=           8
           6           3           1           1           3           1
           3           1
Shell to atom map                          I   N=           8
           1           1           1           1           2           2
           3           3
Primitive exponents                        R   N=          19
  5.48467166E+03  8.25234946E+02  1.88046958E+02  5.29645000E+01  1.68975704E+01
  5.79963534E+00  1.55396162E+01  3.59993359E+00  1.01376175E+00  2.70005823E-01
  8.00000000E-01  1.87311370E+01  2.82539436E+00  6.40121692E-01  1.61277759E-01
  1.87311370E+01  2.82539436E+00  6.40121692E-01  1.61277759E-01
Contraction coefficients                   R   N=          19
  1.83107443E-03  1.39501722E-02  6.84450781E-02  2.32714336E-01  4.70192898E-01
  3.58520853E-01 -1.10777550E-01 -1.48026263E-01  1.13076702E+00  1.00000000E+00
  1.00000000E+00  3.34946043E-02  2.34726953E-01  8.13757326E-01  1.00000000E+00
  3.34946043E-02  2.34726953E-01  8.13757326E-01  1.00000000E+00
P(S=P) Contraction coefficients            R   N=          19
  0.00000000E+00  0.00000000E+00  0.00000000E+00  0.00000000E+00  0.00000000E+00
  0.00000000E+00  7.08742682E-02  3.39752839E-01  7.27158577E-01  1.00000000E+00
  0.00000000E+00  0.00000000E+00  0.00000000E+00  0.00000000E+00  0.00000000E+00
  0.00000000E+00  0.00000000E+00  0.00000000E+00  0.00000000E+00
Coordinates of each shell                  R   N=          24
  0.00000000E+00  0.00000000E+00  2.24244351E-01  0.00000000E+00  0.00000000E+00
  2.24244351E-01  0.00000000E+00  0.00000000E+00  2.24244351E-01  0.00000000E+00
  0.00000000E+00  2.24244351E-01  0.00000000E+00  1.43041685E+00 -8.96979292E-01
  0.00000000E+00  1.43041685E+00 -8.96979292E-01  0.00000000E+00 -1.43041685E+00
 -8.96979292E-01  0.00000000E+00 -1.43041685E+00 -8.96979292E-01
Num ILSW                                   I              100
ILSW                                       I   N=         100
           1           0           0           0           2           0
           0           0           0           0           0          -1
           5           0           0           0           0           0
           0           0           1           0           0           0
           1           1           0           0           0           0
           0           0      100000           0          -1           0
           0           0           0           0           0           0
           0           0           0           1           1           0
           0 -2000000000           1           0           0           0
           0           0           4          52           0           0
           0           0           0           0           0           0
           0           0           0           0           4           1
           0           0           0           0           0           0
           0           0           0           0           0           0
           0           0           0           0           0           0
           0           0           0           0           0           0
           0           0           0           0
Num RLSW                                   I               52
RLSW                                       R   N=          52
  1.00000000E+00  1.00000000E+00  1.00000000E+00  1.00000000E+00  1.00000000E+00
  0.00000000E+00  0.00000000E+00  1.00000000E+00  0.00000000E+00  0.00000000E+00
  0.00000000E+00  0.00000000E+00  1.00000000E+00  0.00000000E+00  0.00000000E+00
  0.00000000E+00  0.00000000E+00  1.00000000E+00  0.00000000E+00  0.00000000E+00
  0.00000000E+00  0.00000000E+00  1.00000000E+00  0.00000000E+00  0.00000000E+00
  0.00000000E+00  0.00000000E+00  1.00000000E+00  0.00000000E+00  0.00000000E+00
  0.00000000E+00  0.00000000E+00  1.00000000E+00  0.00000000E+00  0.00000000E+00
  0.00000000E+00  0.00000000E+00  0.00000000E+00  1.00000000E+00  1.00000000E+00
  0.00000000E+00  1.00000000E+00  0.00000000E+00  0.00000000E+00  0.00000000E+00
  0.00000000E+00  0.00000000E+00  0.00000000E+00  0.00000000E+00  0.00000000E+00
  0.00000000E+00  0.00000000E+00
MxBond                                     I                2
NBond                                      I   N=           3
           2           1           1
IBond                                      I   N=           6
           2           3           1           0           1           0
RBond                                      R   N=           6
  1.00000000E+00  1.00000000E+00  1.00000000E+00  0.00000000E+00  1.00000000E+00
  0.00000000E+00
Virial Ratio                               R      1.991145310003305E+00
SCF Energy                                 R     -7.580613449769017E+01
MP2 Energy                                 R     -7.600063210027122E+01
MP3 Energy                                 R     -7.600547386425696E+01
Cluster Energy                             R     -7.599998674497813E+01
Total Energy                               R     -7.599998674837342E+01
PUHF Energy                                R     -7.580779310677551E+01
PMP2-0 Energy                              R     -7.600163987989657E+01
PMP3-0 Energy                              R     -7.600600216653258E+01
Post-SCF wavefunction norm                 R      1.027289302146477E+00
S**2                                       R      7.572607203853901E-01
S**2 after annihilation                    R      7.500178654460709E-01
S**2 corrected to first order              R      7.515541728244520E-01
RMS Density                                R      3.293881336389542E-09
Job Status                                 I                1
Nuclear derivative order                   I                0
External E-field                           R   N=          35
  0.00000000E+00  0.00000000E+00  0.00000000E+00  0.00000000E+00  0.00000000E+00
  0.00000000E+00  0.00000000E+00  0.00000000E+00  0.00000000E+00  0.00000000E+00
  0.00000000E+00  0.00000000E+00  0.00000000E+00  0.00000000E+00  0.00000000E+00
  0.00000000E+00  0.00000000E+00  0.00000000E+00  0.00000000E+00  0.00000000E+00
  0.00000000E+00  0.00000000E+00  0.00000000E+00  0.00000000E+00  0.00000000E+00
  0.00000000E+00  0.00000000E+00  0.00000000E+00  0.00000000E+00  0.00000000E+00
  0.00000000E+00  0.00000000E+00  0.00000000E+00  0.00000000E+00  0.00000000E+00
IOpCl                                      I                1
IROHF                                      I                0
Alpha Orbital Energies                     R   N=          18
 -2.02087815E+01 -1.02652461E+00 -3.61731996E-01 -2.67132060E-01 -1.73846837E-01
  1.91087469E-01  5.37897018E-01  1.33765110E+00  1.46833252E+00  1.46954948E+00
  1.49178851E+00  1.69322063E+00  1.96442716E+00  2.34403845E+00  2.36403359E+00
  2.38915843E+00  2.95108351E+00  3.26058666E+00
Beta Orbital Energies                      R   N=          18
 -2.01953902E+01 -9.80441322E-01 -3.55117813E-01 -2.36086896E-01 -1.58094995E-01
  5.38800999E-01  6.22468625E-01  1.34942392E+00  1.49129455E+00  1.50539542E+00
  1.52633768E+00  1.70139499E+00  1.99690440E+00  2.35306408E+00  2.36190656E+00
  2.39875498E+00  2.96029374E+00  3.27626642E+00
Alpha MO coefficients                      R   N=         324
  9.95791323E-01  2.18770548E-02 -8.64864484E-17 -1.07385101E-15 -1.12258702E-03
 -7.87770799E-03 -8.84966317E-17  5.30045968E-18  1.58044160E-03  9.39121275E-05
  4.07725116E-19  1.06572877E-16  3.18520926E-04 -8.97069341E-18  2.60921407E-04
  1.80990807E-03  2.60921407E-04  1.80990807E-03 -2.15534767E-01  4.83175494E-01
 -1.42426994E-17  2.41356302E-16 -1.14276443E-01  4.82702562E-01 -3.13750257E-17
 -4.79680784E-16 -4.47239427E-02  7.16468654E-03 -2.79265596E-17 -2.66099413E-16
 -1.21829100E-02  9.42014858E-18  1.20706322E-01 -3.34820471E-03  1.20706322E-01
 -3.34820471E-03 -4.57805016E-16  2.48124140E-15  2.45311728E-16  4.75127593E-01
  1.72365434E-15 -1.44764181E-15  2.37822705E-16  2.77770197E-01  2.13812258E-15
 -3.72917174E-18 -1.16816057E-17 -4.07618942E-02  1.85540658E-16  1.95544661E-17
  2.16166541E-01  2.11568612E-01 -2.16166541E-01 -2.11568612E-01 -6.66893015E-02
  1.31539178E-01  1.61163475E-15 -1.80147240E-15  5.57957069E-01  3.11734211E-01
  1.70289860E-15 -1.35177091E-15  4.19067082E-01 -2.45533964E-02 -1.07168283E-16
  1.64639161E-16  6.15622732E-03  8.78169948E-17 -1.27462754E-01 -7.84028571E-02
 -1.27462754E-01 -7.84028571E-02  2.34453361E-16 -8.21735903E-17  6.23757502E-01
 -9.31136660E-17 -1.23001281E-15 -2.20480441E-15  5.28665008E-01  2.92591238E-17
 -6.69621082E-16 -2.27429784E-17 -2.60423690E-02  2.94727773E-18 -6.46273094E-17
 -3.31289193E-16  5.63746341E-16  5.22265075E-16  6.16103041E-16  1.35667294E-15
 -8.59537184E-02  1.13984834E-01 -7.59626793E-17  2.43097926E-15 -2.26064976E-01
  1.16697341E+00  3.13002292E-16  6.04936240E-15 -4.66843103E-01  1.51750284E-02
  2.49638411E-17 -6.11388928E-17 -6.21770786E-03 -3.47740821E-17 -7.13559234E-02
 -9.82919346E-01 -7.13559234E-02 -9.82919346E-01 -1.11859178E-15  2.29563532E-15
 -6.84517451E-17 -3.41799800E-01 -2.04400171E-15  8.70897719E-15 -2.09564487E-16
 -8.59864748E-01 -6.40759530E-15  1.08736808E-16 -1.04632929E-16  3.20623993E-02
 -6.36398211E-16 -1.11903180E-16  8.10343581E-03  1.40702048E+00 -8.10343581E-03
 -1.40702048E+00 -2.54884533E-15  1.15012740E-14  4.59903214E-15 -3.50858962E-02
 -1.19408874E-14 -2.06997574E-15 -4.73935384E-15 -7.47731058E-01 -8.76207690E-15
  3.98002330E-16 -1.36605998E-16 -1.95776520E-01  4.13123361E-15 -9.85545131E-17
  8.38099347E-01 -3.78417209E-01 -8.38099347E-01  3.78417209E-01  6.78437731E-15
 -3.12076056E-14 -9.73003537E-01  1.38198487E-15  2.16325558E-13  4.74855422E-14
  1.02778618E+00 -5.99402378E-15 -1.43022552E-13 -2.91523877E-15 -8.75265065E-04
 -1.35272884E-15 -4.22821482E-14 -1.92167814E-16  1.72240170E-13 -1.35584519E-13
  1.64630755E-13 -1.35236574E-13  1.05206063E-02 -1.16451219E-02  2.58836921E-13
 -9.07716063E-15  8.85098220E-01  1.26953709E-01 -2.72898989E-13 -6.38077699E-15
 -7.00479819E-01 -4.46058859E-03 -1.50263325E-15 -9.25193490E-15 -1.28371223E-01
  6.04161216E-16  5.07295538E-01 -4.59952886E-01  5.07295538E-01 -4.59952886E-01
  8.09506122E-02 -5.45471201E-01  4.72005196E-14 -1.82411118E-14 -4.05952882E-01
  2.43580186E-01 -4.97036430E-14  3.01029932E-15  9.10573586E-01 -1.29406282E-02
  1.27020559E-15 -9.55847164E-15 -1.79753890E-01 -8.98465780E-16  7.18374540E-01
 -2.85378246E-01  7.18374540E-01 -2.85378246E-01 -1.24008845E-15  1.21751889E-14
 -1.51213047E-15 -1.05155873E+00 -2.37261638E-16 -1.22143722E-14  1.99963852E-15
  1.47403141E+00 -5.99949778E-15 -2.83420120E-16 -6.62385707E-16 -2.88580721E-02
  5.06282169E-15  2.37635294E-15  1.40685958E-01 -9.03638875E-01 -1.40685958E-01
  9.03638875E-01  6.02933743E-02 -1.58396003E+00  6.63975604E-16 -1.67464365E-15
  2.23842618E-01  2.50789440E+00 -2.65070533E-15  3.26542587E-15 -7.56031442E-01
  1.64903190E-02  2.39046241E-15  7.27078543E-16  2.57783529E-01  2.07185298E-15
 -2.53429148E-01 -6.20655414E-01 -2.53429148E-01 -6.20655414E-01  1.40037284E-03
  7.31773309E-02 -7.87422737E-16 -1.15718767E-15  8.69555953E-03 -1.62486197E-01
  2.55007217E-15  1.96405499E-16  9.24500983E-02  9.87593474E-01  5.06895422E-14
 -1.67156367E-15  1.37645982E-01  5.67642405E-14  6.95259021E-02  2.62950094E-02
  6.95259021E-02  2.62950094E-02 -2.75650858E-16 -2.29747459E-15  2.97284150E-15
  3.44954976E-15 -1.80863073E-15  7.61735905E-15  3.17123093E-15 -6.54036814E-15
 -3.43749320E-15 -5.62722325E-14  1.86222152E-13  4.26102647E-16 -1.12590248E-14
  1.00000000E+00 -5.57019771E-15  4.37660483E-15 -5.08042681E-15 -5.60489130E-15
 -3.64063824E-16  6.31712758E-17  1.53977152E-02 -1.51598214E-15  2.24131676E-15
  4.60038607E-15  1.46722564E-02 -5.39526982E-16 -8.19275467E-15 -5.06388933E-14
  9.99660457E-01  1.94008484E-15 -1.04764548E-14 -1.88253490E-13 -3.21579024E-15
 -1.25057081E-15 -6.23074170E-15 -1.75929362E-16 -2.06720457E-02 -5.65441064E-01
 -5.50427887E-16 -1.36777567E-16  4.26211168E-02  1.36793082E+00 -4.41470055E-17
 -1.19931508E-14 -7.33949052E-01  1.67979192E-01 -3.04729178E-15  2.96193435E-14
 -1.07071470E+00 -3.30482092E-15 -8.50787734E-01 -1.18060327E-01 -8.50787734E-01
 -1.18060327E-01  5.71825830E-16  1.23391416E-14 -6.16057321E-16  1.85876655E-02
  6.61002194E-16 -3.17146633E-14  7.63789329E-16 -8.45151972E-01  1.76351168E-14
 -2.49549609E-15 -2.08068950E-15  1.27974909E+00  2.32089545E-14 -3.18953055E-16
  9.41192755E-01 -4.71286106E-02 -9.41192755E-01  4.71286106E-02
Beta MO coefficients                       R   N=         324
  9.95793910E-01  2.18951718E-02 -8.62748605E-17  2.48032196E-16 -9.44131248E-04
 -7.94733150E-03 -8.76642437E-17 -6.36265321E-16  1.55201527E-03 -6.34194635E-05
 -2.34408284E-17 -3.80761590E-16  2.49795736E-04  3.59939504E-17  2.72849918E-04
  1.84038678E-03  2.72849918E-04  1.84038678E-03 -2.15522215E-01  4.62835845E-01
  3.70046583E-17 -5.81924456E-16 -5.96978414E-02  5.11583413E-01 -5.80916020E-17
  3.22781647E-16 -3.64417099E-02  1.06462534E-03  2.17702585E-17 -1.92844371E-17
 -1.65986125E-02  3.25637269E-17  1.21754639E-01 -3.96795271E-03  1.21754639E-01
 -3.96795271E-03 -5.31011880E-16  1.96383069E-15  2.16916153E-16  5.08500034E-01
  2.56051520E-15  3.79638524E-16  2.14412856E-16  3.32370653E-01  2.46520299E-15
 -3.08874341E-16 -3.04418311E-17 -4.41279152E-02  2.27822805E-16  1.80016137E-17
  2.11936637E-01  1.10968963E-01 -2.11936637E-01 -1.10968963E-01 -5.88967450E-02
  1.40981657E-01  8.09716329E-16 -2.69482043E-15  5.44823782E-01  2.57183934E-01
  1.17496352E-15 -3.20298084E-15  4.30069862E-01 -2.32106895E-02 -2.87497069E-17
  1.61887946E-16  9.27075574E-03  1.93608970E-17 -1.42786362E-01 -7.42530804E-02
 -1.42786362E-01 -7.42530804E-02  2.29933990E-16 -2.01170079E-16  6.17069364E-01
 -2.20691790E-16 -4.84620668E-16 -2.32299657E-15  5.35840425E-01  1.61617142E-16
  3.59553608E-17  1.30403269E-17 -2.10736340E-02  2.60230269E-17  3.11369426E-17
 -2.92329858E-16  3.15676871E-16  1.13344144E-15  4.87169274E-16  1.90984815E-15
 -8.73553504E-02  9.48441925E-02 -1.70337941E-16  5.00055792E-15 -1.84829819E-01
  1.21557520E+00 -4.77883293E-16  1.59452851E-14 -5.17590935E-01  8.47258678E-03
 -1.13783515E-16 -5.35802503E-16 -9.98766989E-03 -4.62572783E-16 -3.54065682E-02
 -1.01733644E+00 -3.54065682E-02 -1.01733644E+00 -2.43282370E-15  1.07174650E-14
 -5.24644761E-17 -3.09725877E-01 -5.03835951E-15  1.00152306E-14 -2.71665789E-16
 -8.34098645E-01 -1.05030017E-14  4.62112824E-16  2.04308120E-16  1.50166601E-02
 -6.70961716E-16  2.34112427E-16  3.06429362E-02  1.40927060E+00 -3.06429362E-02
 -1.40927060E+00 -1.91167256E-15  8.60768166E-15  4.43039929E-15 -4.57030177E-02
 -7.14856656E-15 -2.18028726E-15 -4.18370535E-15 -7.08477508E-01 -6.37492443E-15
 -3.23738538E-16  4.77617444E-16 -2.01543258E-01  2.11073185E-15 -1.78788435E-16
  8.36258285E-01 -4.14149035E-01 -8.36258285E-01  4.14149035E-01 -2.47076245E-15
  2.34014690E-14 -9.77379886E-01  1.43400115E-15  5.96396599E-14 -1.10227700E-14
  1.02388034E+00 -5.75160088E-15 -6.61175611E-14  1.64646213E-15 -1.26970210E-02
 -1.32161771E-15  9.15139713E-16  1.66594238E-15  4.15169141E-16 -7.93703016E-15
 -6.54944035E-15 -7.85570018E-15  6.52833629E-02 -5.02912532E-01 -5.62124408E-14
 -1.40708590E-14 -7.62096062E-01  2.30411311E-01  5.85264003E-14  9.63968767E-15
  1.10537154E+00 -1.69397988E-02 -1.19445301E-15 -3.07700878E-15 -1.00657262E-01
 -3.87415881E-16  4.05884036E-01 -7.71027107E-02  4.05884036E-01 -7.71027107E-02
  4.92933354E-02 -1.56801775E-01  2.54950043E-14 -1.44504038E-14  6.10057907E-01
 -2.23382831E-02 -2.68436691E-14  3.32555960E-15 -1.24872789E-01  1.68719985E-04
  1.27762254E-15 -8.80746078E-15 -2.14528220E-01  1.01616662E-15  7.89913237E-01
 -4.42142235E-01  7.89913237E-01 -4.42142235E-01 -4.71477759E-16 -7.62383355E-15
 -1.57660158E-15 -1.04557594E+00  4.97249173E-15  2.00048581E-14  2.12669944E-15
  1.49647416E+00 -1.86193987E-14  1.96107608E-15  1.70882298E-16 -3.38809279E-02
  7.37578472E-15 -1.04640320E-15  1.24028884E-01 -9.02658992E-01 -1.24028884E-01
  9.02658992E-01  6.61718735E-02 -1.58876705E+00  1.43312288E-15  9.28878843E-15
  2.92998909E-01  2.47169331E+00 -1.19612520E-15 -1.90576176E-14 -7.60406054E-01
  3.67439622E-02  1.92803079E-15 -1.00762760E-15  2.59090894E-01 -3.38034302E-15
 -1.96731704E-01 -6.37141821E-01 -1.96731704E-01 -6.37141821E-01 -1.52160892E-03
  1.15759087E-01  8.06226526E-16  2.33995951E-15 -1.49395973E-02 -2.18991425E-01
 -2.58976700E-15 -3.53791714E-15  1.22223737E-01  9.85797811E-01 -4.48460971E-14
 -1.46154022E-15  1.41347399E-01  6.71375094E-14  7.51755959E-02  4.02392771E-02
  7.51755959E-02  4.02392771E-02  9.65201544E-17 -1.35894445E-14  3.06755790E-15
 -1.38654726E-15  4.02310507E-16  2.61692715E-14 -4.96432620E-15  2.80933471E-15
 -1.08106078E-14 -6.62204639E-14 -9.86568520E-14  1.96098970E-16 -8.50053628E-15
  1.00000000E+00 -6.58687228E-15 -8.25464699E-15 -7.48324007E-15 -3.67662987E-15
 -1.95049838E-16  8.63304660E-15  5.94260850E-04  4.19140698E-16 -2.81272711E-15
 -1.55615805E-14  2.42996908E-02 -5.39901050E-16  8.68357874E-15  4.49118028E-14
  9.99697298E-01  2.05594024E-15  6.26200638E-15  1.00191538E-13  4.21165222E-15
  3.32439001E-15  2.53888017E-15  4.50182998E-15 -1.97855079E-02 -5.80739343E-01
 -9.39380872E-16 -3.35614166E-17  4.56483324E-02  1.39223830E+00  1.86839447E-16
 -9.76588800E-15 -7.41217990E-01  1.75657545E-01  6.18476539E-17  2.02432314E-14
 -1.06635911E+00 -3.34305882E-16 -8.55975384E-01 -1.24990342E-01 -8.55975384E-01
 -1.24990342E-01  5.98756167E-16  7.17333990E-15 -6.19053742E-16  1.02666524E-02
  1.09259033E-15 -1.97181739E-14  7.69276930E-16 -8.45641625E-01  1.11868412E-14
 -1.53959504E-15 -2.07321649E-15  1.27893242E+00  1.59756426E-14 -3.04030006E-16
  9.45660238E-01 -4.22065934E-02 -9.45660238E-01  4.22065934E-02
Orthonormal basis                          R   N=         324
  5.29754065E-02  1.89461880E-01  1.49362543E-17 -3.35486742E-18 -6.69700749E-02
  2.51236217E-01  1.35518565E-18 -9.25816485E-18 -1.20849292E-01  4.87833645E-03
  2.47099600E-41  2.23599194E-18 -3.69260726E-02  0.00000000E+00  1.75470646E-01
  2.29903206E-01  1.75470646E-01  2.29903206E-01 -1.16325562E-17 -6.58901910E-17
 -1.87005569E-16  2.68325350E-01 -1.28533227E-16  4.85780520E-17 -1.74669666E-16
  3.84743925E-01 -7.19499310E-18  2.30620600E-18  0.00000000E+00 -1.46940550E-01
  2.48291752E-17  8.51823152E-27  2.63043966E-01  1.64872903E-01 -2.63043966E-01
 -1.64872903E-01  1.60443675E-01  2.83112581E-01 -5.21363531E-16 -2.23330231E-17
  4.34919400E-01  2.50156487E-01 -4.85128078E-16  3.22707207E-17  4.69165754E-01
 -1.01789698E-02 -3.01473852E-34 -2.50624074E-17  7.70486787E-02 -9.20025184E-39
 -1.19353201E-01  1.22196686E-02 -1.19353201E-01  1.22196686E-02  2.94501229E-16
  1.51477136E-16  5.77057836E-01  8.15514239E-17  5.40596917E-16  3.04196926E-16
  5.77057836E-01  1.07455254E-16  4.46154812E-16  3.08902191E-16  0.00000000E+00
 -1.55000667E-16 -2.15202737E-18  8.64061504E-23  4.81626948E-17  1.10232176E-16
 -2.23647552E-16 -9.36255094E-17  2.23952472E-16  9.04984783E-17  7.04320615E-17
  3.71794071E-01 -2.37805857E-16  2.05025886E-16  1.24632135E-16  2.61844932E-01
 -1.22835269E-16 -1.75076115E-17  2.07075254E-16  7.71569925E-01  8.77193847E-16
 -4.04443856E-19 -1.81983420E-01  2.61085026E-02  1.81983420E-01 -2.61085026E-02
  3.15893995E-01  1.46468835E-01 -1.33065838E-17 -3.17719327E-16 -2.83268783E-01
  4.15160948E-02  1.48495688E-17 -4.72993607E-16 -1.70028837E-01 -1.04236456E-01
 -3.78195859E-31 -8.60443103E-16  7.89007274E-01  2.95465515E-33 -1.63295414E-01
 -1.62743978E-02 -1.63295414E-01 -1.62743978E-02 -5.86699879E-16 -1.94856467E-16
 -4.96839318E-16 -1.58878029E-16  2.02736103E-16  1.13878702E-17 -5.09699174E-16
  3.29357135E-17  1.41841441E-16  9.91385951E-01 -2.99760217E-15 -8.16508468E-17
  1.30972884E-01  3.81639165E-17  7.24183019E-17  1.89633706E-16  5.75448936E-17
  1.32032596E-16 -1.48814957E-19 -2.23316938E-17 -8.25726340E-17  4.83151405E-16
  3.46729218E-18  4.78926249E-17  8.46201253E-17 -4.25712544E-16 -1.80188971E-17
  2.74667063E-15  9.99745759E-01 -4.27985915E-16  3.57696225E-16 -2.25481319E-02
 -8.32034355E-17  1.67666044E-17  6.58153076E-17 -4.66861543E-17 -1.95880234E-32
 -2.71647456E-30  1.29016799E-17  3.37083419E-17  4.56880336E-31  5.86821241E-30
 -1.28804234E-17 -2.19481171E-17 -2.14681081E-30  2.31527533E-17  2.25481319E-02
 -4.48733220E-17  3.05873092E-18  9.99745759E-01 -5.83177734E-17  7.12251629E-17
  5.83177734E-17 -7.12251629E-17  8.46564390E-01  1.09580183E-01 -8.39513415E-17
 -3.49265403E-17 -1.82140862E-01 -9.90599974E-02 -3.37657817E-16  2.06138853E-17
 -4.64414193E-02  5.58675926E-02 -2.48545899E-30  1.60792325E-16 -4.22884072E-01
  3.26216493E-32  1.53745747E-02 -1.73583623E-01  1.53745747E-02 -1.73583623E-01
 -4.03283660E-15  6.24809024E-15 -2.69242281E-16  9.77582480E-01 -6.67087868E-15
  1.96325667E-15  2.83024204E-16 -3.67265104E-01  2.68178536E-15  3.45469975E-17
 -5.83964829E-16 -3.88658620E-01 -2.32039806E-15 -3.38530335E-17 -1.35912137E-01
 -3.23325175E-01  1.35912137E-01  3.23325175E-01  4.25677672E-01 -6.64752309E-01
 -3.39857333E-16  9.50397551E-15  7.07377863E-01 -2.12328485E-01  2.64608812E-16
 -3.52107704E-15 -2.78763464E-01 -2.84277950E-02  1.97171531E-24 -3.44152432E-15
  2.15181309E-01 -4.44702104E-26  1.17365301E-01  2.98648100E-01  1.17365301E-01
  2.98648100E-01  1.27954153E-16 -6.53893567E-16  1.00152416E+00  5.76054382E-16
 -1.26080264E-16 -6.04946335E-17 -1.00152416E+00 -3.92136433E-16 -8.65094581E-17
  1.19919685E-16  2.45700865E-17 -2.02745382E-17 -2.13688837E-16  6.28994214E-16
 -5.00925053E-16  3.85202750E-16 -6.97485745E-16  1.09282124E-15  1.73928222E-01
 -7.88921240E-01 -4.90638727E-16 -4.48015719E-18 -7.18841665E-01  2.21751494E-01
  8.10023572E-16 -6.61987595E-18  8.86674979E-01  4.73234577E-03  7.18261134E-23
 -4.57655025E-16 -3.58210110E-02 -1.61995663E-24 -1.23816322E-01  4.03787724E-01
 -1.23816322E-01  4.03787724E-01  6.37476142E-02 -2.71729300E-01  1.22817184E-15
  3.26376588E-16 -2.57814251E-02  1.58874362E-01 -8.08415174E-16 -8.89079203E-18
  5.75308467E-01 -7.21345329E-02 -2.99992030E-20 -7.24163459E-16  5.46015025E-01
  6.76598005E-22  1.08671698E+00 -6.19544299E-01  1.08671698E+00 -6.19544299E-01
  9.56718679E-17 -4.67396003E-16 -4.75799010E-16 -3.73804382E-02 -2.18816538E-16
  6.39436457E-17  7.37061726E-16 -7.08252621E-01  5.72685028E-16  2.60231494E-16
 -6.41249393E-16  8.80666428E-01  4.77888394E-16 -1.90265913E-16  1.21933106E+00
 -6.96123288E-01 -1.21933106E+00  6.96123288E-01  1.54189416E-16  3.31394088E-16
  1.98067978E-17 -5.31630969E-01  3.93897894E-16 -2.11789738E-15  9.70684440E-17
  1.84650475E+00  7.02189415E-16 -1.14781937E-16  7.77184746E-17 -3.68873890E-01
  4.79775628E-16  1.22530744E-16 -2.17462769E-01 -1.53930513E+00  2.17462769E-01
  1.53930513E+00 -9.70852153E-03 -1.45199034E+00 -3.74082030E-16 -3.00602965E-16
  2.25473471E-01  3.11415411E+00 -4.53591368E-16  1.46028970E-15 -1.17197327E+00
  4.36782995E-02 -2.44053114E-16 -4.36685269E-16 -3.30618455E-01  5.50434124E-18
 -5.65882864E-01 -9.72450955E-01 -5.65882864E-01 -9.72450955E-01
Total SCF Density                          R   N=         171
  2.09141526E+00 -1.87177501E-01  4.98804506E-01 -3.74518784E-17  1.48561668E-16
  7.69848021E-01 -1.16657756E-15  1.66694451E-15  3.25937517E-17  4.84318514E-01
 -1.44282544E-02  4.15442868E-02  2.90870980E-16 -8.93798377E-16  6.75879507E-01
 -3.66297570E-01  6.79943590E-01 -2.17328906E-15  9.12763391E-16 -3.54431957E-02
  2.01999331E+00 -1.18652399E-16  2.28184349E-16  6.60409475E-01  5.45435543E-17
  6.16824928E-16 -1.25552922E-15  5.66611652E-01 -1.13931845E-15  1.30590752E-15
  2.58216435E-16  3.00986773E-01 -2.50087771E-15  5.47696703E-15  2.39393874E-16
  1.87626533E-01  7.46273466E-03  2.41351821E-02  6.62603984E-16 -7.70248187E-16
  5.80953749E-01 -3.43805004E-01  7.41327539E-16 -3.34611209E-15  5.81852923E-01
 -4.31924928E-05 -8.17078285E-04 -6.57225332E-17 -1.41702267E-17 -3.06583754E-02
  8.08812596E-03 -6.96591110E-17  9.25843160E-17 -2.77152753E-02  1.42436587E-03
 -2.58658134E-17 -1.28468247E-17 -2.92480170E-02 -1.39542469E-17 -3.69437252E-17
  9.25426268E-17 -2.50597942E-02 -1.75306106E-17 -5.18285657E-17  3.81956383E-18
  1.12230303E-03 -1.84691609E-16 -2.93792613E-16 -1.67502904E-18 -4.18061471E-02
  4.24337206E-17 -7.22588367E-17 -3.65338386E-18 -2.59892634E-02 -1.65966883E-17
  3.16132958E-18  1.19434508E-18  3.60880492E-03  6.34699913E-03 -1.21484116E-02
 -3.68733702E-18  1.59253605E-16  1.22739723E-02 -1.73292948E-02  3.24470237E-18
  5.19591815E-17  1.06202796E-02 -5.65634779E-04 -8.14768617E-20 -1.12210174E-17
  5.86607025E-04  1.38532557E-17  3.05322750E-17 -3.87031919E-16  1.84446876E-17
  6.43631943E-17  1.27652491E-17 -3.31783160E-16  1.14148560E-17  5.97954918E-17
 -3.03424753E-18  1.47880079E-17 -1.59145076E-18  2.87182889E-19  2.07736790E-31
 -2.86823519E-02  6.96563332E-02  3.32556936E-16  2.10476475E-01 -1.53844004E-01
 -3.91786443E-02  1.45970069E-16  1.30486141E-01 -9.13461086E-02  6.35543850E-03
 -1.50535198E-17 -1.81636796E-02 -5.15611794E-03  1.67502804E-18  1.62765829E-01
  9.92992424E-02 -1.36193658E-01  9.88920000E-16  1.56949807E-01  1.38619095E-01
 -1.19425331E+00  4.29157270E-16  9.56502815E-02  3.94379109E-01 -1.12954673E-02
 -5.73719797E-17 -1.35207664E-02  5.04814697E-03  3.18813949E-17  1.59099041E-01
  1.03489998E+00 -2.86823519E-02  6.96563332E-02  2.73036193E-16 -2.10476475E-01
 -1.53844004E-01 -3.91786443E-02  7.18392834E-17 -1.30486141E-01 -9.13461086E-02
  6.35543850E-03 -2.07715724E-18  1.81636796E-02 -5.15611794E-03 -1.44094175E-17
 -2.05243942E-02  2.05941534E-02  1.62765829E-01  9.92992424E-02 -1.36193658E-01
  1.83654252E-15 -1.56949807E-01  1.38619095E-01 -1.19425331E+00  1.13809163E-15
 -9.56502815E-02  3.94379109E-01 -1.12954673E-02 -8.37645291E-17  1.35207664E-02
  5.04814697E-03  1.96119316E-17  2.05941534E-02  9.20749199E-01  1.59099041E-01
  1.03489998E+00
Spin SCF Density                           R   N=         171
  8.36693581E-03 -1.46741242E-02  2.96600159E-02 -3.80683945E-17  1.38046996E-16