 Entering Gaussian System, Link 0=g16
 Initial command:
 /opt/g16/l1.exe "/scratch/1493/Gau-451566.inp" -scrdir="/scratch/1493/"
 Entering Link 1 = /opt/g16/l1.exe PID=    451567.
  
 Copyright (c) 1988-2017, Gaussian, Inc.  All Rights Reserved.
  
 This is part of the Gaussian(R) 16 program.  It is based on
 the Gaussian(R) 09 system (copyright 2009, Gaussian, Inc.),
 the Gaussian(R) 03 system (copyright 2003, Gaussian, Inc.),
 the Gaussian(R) 98 system (copyright 1998, Gaussian, Inc.),
 the Gaussian(R) 94 system (copyright 1995, Gaussian, Inc.),
 the Gaussian 92(TM) system (copyright 1992, Gaussian, Inc.),
 the Gaussian 90(TM) system (copyright 1990, Gaussian, Inc.),
 the Gaussian 88(TM) system (copyright 1988, Gaussian, Inc.),
 the Gaussian 86(TM) system (copyright 1986, Carnegie Mellon
 University), and the Gaussian 82(TM) system (copyright 1983,
 Carnegie Mellon University). Gaussian is a federally registered
 trademark of Gaussian, Inc.
  
 This software contains proprietary and confidential information,
 including trade secrets, belonging to Gaussian, Inc.
  
 This software is provided under written license and may be
 used, copied, transmitted, or stored only in accord with that
 written license.
  
 The following legend is applicable only to US Government
 contracts under FAR:
  
                    RESTRICTED RIGHTS LEGEND
  
 Use, reproduction and disclosure by the US Government is
 subject to restrictions as set forth in subparagraphs (a)
 and (c) of the Commercial Computer Software - Restricted
 Rights clause in FAR 52.227-19.
  
 Gaussian, Inc.
 340 Quinnipiac St., Bldg. 40, Wallingford CT 06492
  
  
 ---------------------------------------------------------------
 Warning -- This program may not be used in any manner that
 competes with the business of Gaussian, Inc. or will provide
 assistance to any competitor of Gaussian, Inc.  The licensee
 of this program is prohibited from giving any competitor of
 Gaussian, Inc. access to this program.  By using this program,
 the user acknowledges that Gaussian, Inc. is engaged in the
 business of creating and licensing software in the field of
 computational chemistry and represents and warrants to the
 licensee that it is not a competitor of Gaussian, Inc. and that
 it will not use this program in any manner prohibited above.
 ---------------------------------------------------------------
  

 Cite this work as:
 Gaussian 16, Revision B.01,
 M. J. Frisch, G. W. Trucks, H. B. Schlegel, G. E. Scuseria, 
 M. A. Robb, J. R. Cheeseman, G. Scalmani, V. Barone, 
 G. A. Petersson, H. Nakatsuji, X. Li, M. Caricato, A. V. Marenich, 
 J. Bloino, B. G. Janesko, R. Gomperts, B. Mennucci, H. P. Hratchian, 
 J. V. Ortiz, A. F. Izmaylov, J. L. Sonnenberg, D. Williams-Young, 
 F. Ding, F. Lipparini, F. Egidi, J. Goings, B. Peng, A. Petrone, 
 T. Henderson, D. Ranasinghe, V. G. Zakrzewski, J. Gao, N. Rega, 
 G. Zheng, W. Liang, M. Hada, M. Ehara, K. Toyota, R. Fukuda, 
 J. Hasegawa, M. Ishida, T. Nakajima, Y. Honda, O. Kitao, H. Nakai, 
 T. Vreven, K. Throssell, J. A. Montgomery, Jr., J. E. Peralta, 
 F. Ogliaro, M. J. Bearpark, J. J. Heyd, E. N. Brothers, K. N. Kudin, 
 V. N. Staroverov, T. A. Keith, R. Kobayashi, J. Normand, 
 K. Raghavachari, A. P. Rendell, J. C. Burant, S. S. Iyengar, 
 J. Tomasi, M. Cossi, J. M. Millam, M. Klene, C. Adamo, R. Cammi, 
 J. W. Ochterski, R. L. Martin, K. Morokuma, O. Farkas, 
 J. B. Foresman, and D. J. Fox, Gaussian, Inc., Wallingford CT, 2016.
 
 ******************************************
 Gaussian 16:  ES64L-G16RevB.01 20-Dec-2017
                 4-Feb-2021 
 ******************************************
 %chk=H2Onodiffmp2_N+1.chk
 %mem=32GB
 %nprocshared=16
 Will use up to   16 processors via shared memory.
 -----------------------------------------
 # UMP2/6-31g(d) NoSymm 5D Density=Current
 -----------------------------------------
 1/30=1,38=1,172=1/1;
 2/12=2,15=1,17=6,18=5,40=1/2;
 3/5=1,6=6,7=1,8=1,11=2,25=1,30=1,71=1,116=2/1,2,3;
 4//1;
 5/5=2,38=5/2;
 8/6=4,10=2/1;
 9/15=1,16=-3/6;
 10/5=1,13=10,31=1/2;
 6/7=2,8=2,9=2,10=2,22=-1/1;
 99/5=1,9=1/99;
 ----------------------------------------------------------------------
 Calculo de punto sencillo de H2O^-1 a nivel de teoria UMP2/6-31G(d), o
 ptimizada geometricamente a nivel de teoria B3LYP/6-311G(d,p)
 ----------------------------------------------------------------------
 Symbolic Z-matrix:
 Charge = -1 Multiplicity = 2
 O                     0.        0.        0.11867 
 H                     0.        0.75694  -0.47466 
 H                     0.       -0.75694  -0.47466 
 
                          Input orientation:                          
 ---------------------------------------------------------------------
 Center     Atomic      Atomic             Coordinates (Angstroms)
 Number     Number       Type             X           Y           Z
 ---------------------------------------------------------------------
      1          8           0        0.000000    0.000000    0.118665
      2          1           0        0.000000    0.756944   -0.474661
      3          1           0        0.000000   -0.756944   -0.474661
 ---------------------------------------------------------------------
                    Distance matrix (angstroms):
                    1          2          3
     1  O    0.000000
     2  H    0.961769   0.000000
     3  H    0.961769   1.513888   0.000000
 Symmetry turned off by external request.
 Stoichiometry    H2O(1-,2)
 Framework group  C2V[C2(O),SGV(H2)]
 Deg. of freedom     2
 Full point group                 C2V     NOp   4
 Rotational constants (GHZ):         801.9747679         437.5972249         283.1154099
 Standard basis: 6-31G(d) (5D, 7F)
    18 basis functions,    36 primitive gaussians,    19 cartesian basis functions
     6 alpha electrons        5 beta electrons
       nuclear repulsion energy         9.1529448664 Hartrees.
 NAtoms=    3 NActive=    3 NUniq=    3 SFac= 1.00D+00 NAtFMM=   60 NAOKFM=F Big=F
 Integral buffers will be    131072 words long.
 Raffenetti 2 integral format.
 Two-electron integral symmetry is turned off.
 One-electron integrals computed using PRISM.
 NBasis=    18 RedAO= T EigKep=  6.30D-02  NBF=    18
 NBsUse=    18 1.00D-06 EigRej= -1.00D+00 NBFU=    18
 ExpMin= 1.61D-01 ExpMax= 5.48D+03 ExpMxC= 8.25D+02 IAcc=3 IRadAn=         5 AccDes= 0.00D+00
 Harris functional with IExCor=  205 and IRadAn=       5 diagonalized for initial guess.
 HarFok:  IExCor=  205 AccDes= 0.00D+00 IRadAn=         5 IDoV= 1 UseB2=F ITyADJ=14
 ICtDFT=  3500011 ScaDFX=  1.000000  1.000000  1.000000  1.000000
 FoFCou: FMM=F IPFlag=           0 FMFlag=      100000 FMFlg1=           0
         NFxFlg=           0 DoJE=T BraDBF=F KetDBF=T FulRan=T
         wScrn=  0.000000 ICntrl=       500 IOpCl=  0 I1Cent=   200000004 NGrid=           0
         NMat0=    1 NMatS0=      1 NMatT0=    0 NMatD0=    1 NMtDS0=    0 NMtDT0=    0
 Symmetry not used in FoFCou.
 Initial guess <Sx>= 0.0000 <Sy>= 0.0000 <Sz>= 0.5000 <S**2>= 0.7500 S= 0.5000
 Keep R1 and R2 ints in memory in canonical form, NReq=3319220.
 Requested convergence on RMS density matrix=1.00D-08 within 128 cycles.
 Requested convergence on MAX density matrix=1.00D-06.
 Requested convergence on             energy=1.00D-06.
 No special actions if energy rises.
 SCF Done:  E(UHF) =  -75.8061344977     A.U. after   13 cycles
            NFock= 13  Conv=0.33D-08     -V/T= 1.9911
 <Sx>= 0.0000 <Sy>= 0.0000 <Sz>= 0.5000 <S**2>= 0.7573 S= 0.5036
 <L.S>=  0.00000000000    
 Annihilation of the first spin contaminant:
 S**2 before annihilation     0.7573,   after     0.7500
 ExpMin= 1.61D-01 ExpMax= 5.48D+03 ExpMxC= 8.25D+02 IAcc=3 IRadAn=         5 AccDes= 0.00D+00
 HarFok:  IExCor=  205 AccDes= 0.00D+00 IRadAn=         5 IDoV=-2 UseB2=F ITyADJ=14
 ICtDFT= 12500011 ScaDFX=  1.000000  1.000000  1.000000  1.000000
 Range of M.O.s used for correlation:     2    18
 NBasis=    18 NAE=     6 NBE=     5 NFC=     1 NFV=     0
 NROrb=     17 NOA=     5 NOB=     4 NVA=    12 NVB=    13
 Fully in-core method, ICMem=     6183923.
 JobTyp=2 Pass  1 fully in-core, NPsUse= 16.
 JobTyp=3 Pass  1 fully in-core, NPsUse= 16.
 Spin components of T(2) and E(2):
     alpha-alpha T2 =       0.8324808610D-02 E2=     -0.2937527622D-01
     alpha-beta  T2 =       0.3850733922D-01 E2=     -0.1411022332D+00
     beta-beta   T2 =       0.6319554915D-02 E2=     -0.2402009314D-01
 (S**2,0)=  0.75726D+00           (S**2,1)=  0.75155D+00
 E(PUHF)=      -0.75807793107D+02        E(PMP2)=      -0.76001639880D+02
 ANorm=    0.1026231798D+01
 E2 =    -0.1944976026D+00 EUMP2 =    -0.76000632100272D+02
          Differentiating once with respect to electric field.
                with respect to dipole field.
          Electric field/nuclear overlap derivatives assumed to be zero.
 Keep R1 and R2 ints in memory in canonical form, NReq=3319677.
          There are     1 degrees of freedom in the 1st order CPHF.  IDoFFX=0 NUNeed=     1.
 LinEq1:  Iter=  0 NonCon=     1 RMS=3.38D-03 Max=1.70D-02 NDo=     1
 AX will form     1 AO Fock derivatives at one time.
 LinEq1:  Iter=  1 NonCon=     1 RMS=5.78D-04 Max=6.08D-03 NDo=     1
 LinEq1:  Iter=  2 NonCon=     1 RMS=2.17D-04 Max=1.07D-03 NDo=     1
 LinEq1:  Iter=  3 NonCon=     1 RMS=6.41D-05 Max=2.81D-04 NDo=     1
 LinEq1:  Iter=  4 NonCon=     1 RMS=1.20D-05 Max=6.16D-05 NDo=     1
 LinEq1:  Iter=  5 NonCon=     1 RMS=2.67D-06 Max=1.01D-05 NDo=     1
 LinEq1:  Iter=  6 NonCon=     1 RMS=5.03D-07 Max=2.77D-06 NDo=     1
 LinEq1:  Iter=  7 NonCon=     1 RMS=6.02D-08 Max=3.31D-07 NDo=     1
 LinEq1:  Iter=  8 NonCon=     1 RMS=4.07D-09 Max=1.77D-08 NDo=     1
 LinEq1:  Iter=  9 NonCon=     1 RMS=5.68D-10 Max=2.79D-09 NDo=     1
 LinEq1:  Iter= 10 NonCon=     0 RMS=8.35D-11 Max=4.27D-10 NDo=     1
 Linear equations converged to 1.000D-10 1.000D-09 after    10 iterations.
 End of Minotr F.D. properties file   721 does not exist.
 End of Minotr F.D. properties file   722 does not exist.
 End of Minotr F.D. properties file   788 does not exist.

 **********************************************************************

            Population analysis using the MP2 Density.

 **********************************************************************

 Alpha  occ. eigenvalues --  -20.20878  -1.02652  -0.36173  -0.26713  -0.17385
 Alpha  occ. eigenvalues --    0.19109
 Alpha virt. eigenvalues --    0.53790   1.33765   1.46833   1.46955   1.49179
 Alpha virt. eigenvalues --    1.69322   1.96443   2.34404   2.36403   2.38916
 Alpha virt. eigenvalues --    2.95108   3.26059
  Beta  occ. eigenvalues --  -20.19539  -0.98044  -0.35512  -0.23609  -0.15809
  Beta virt. eigenvalues --    0.53880   0.62247   1.34942   1.49129   1.50540
  Beta virt. eigenvalues --    1.52634   1.70139   1.99690   2.35306   2.36191
  Beta virt. eigenvalues --    2.39875   2.96029   3.27627
          Condensed to atoms (all electrons):
               1          2          3
     1  O   10.231346  -0.755817  -0.755817
     2  H   -0.755817   1.425483   0.470477
     3  H   -0.755817   0.470477   1.425483
          Atomic-Atomic Spin Densities.
               1          2          3
     1  O    1.864736  -1.010930  -1.010930
     2  H   -1.010930   1.091942   0.497550
     3  H   -1.010930   0.497550   1.091942
 Mulliken charges and spin densities:
               1          2
     1  O   -0.719713  -0.157124
     2  H   -0.140144   0.578562
     3  H   -0.140144   0.578562
 Sum of Mulliken charges =  -1.00000   1.00000
 Mulliken charges and spin densities with hydrogens summed into heavy atoms:
               1          2
     1  O   -1.000000   1.000000
 Electronic spatial extent (au):  <R**2>=             30.1222
 Charge=             -1.0000 electrons
 Dipole moment (field-independent basis, Debye):
    X=             -0.0000    Y=             -0.0000    Z=              0.5724  Tot=              0.5724
 Quadrupole moment (field-independent basis, Debye-Ang):
   XX=            -10.0411   YY=            -11.1845   ZZ=            -11.0803
   XY=             -0.0000   XZ=             -0.0000   YZ=              0.0000
 Traceless Quadrupole moment (field-independent basis, Debye-Ang):
   XX=              0.7275   YY=             -0.4159   ZZ=             -0.3117
   XY=             -0.0000   XZ=             -0.0000   YZ=              0.0000
 Octapole moment (field-independent basis, Debye-Ang**2):
  XXX=             -0.0000  YYY=             -0.0000  ZZZ=              4.3940  XYY=             -0.0000
  XXY=             -0.0000  XXZ=              1.1233  XZZ=             -0.0000  YZZ=             -0.0000
  YYZ=              2.4319  XYZ=             -0.0000
 Hexadecapole moment (field-independent basis, Debye-Ang**3):
 XXXX=             -9.6897 YYYY=            -25.0446 ZZZZ=            -17.8356 XXXY=             -0.0000
 XXXZ=             -0.0000 YYYX=             -0.0000 YYYZ=              0.0000 ZZZX=             -0.0000
 ZZZY=              0.0000 XXYY=             -5.5083 XXZZ=             -4.5132 YYZZ=             -7.3687
 XXYZ=              0.0000 YYXZ=              0.0000 ZZXY=             -0.0000
 N-N= 9.152944866370D+00 E-N=-2.025753148455D+02  KE= 7.660824100838D+01
                          Isotropic Fermi Contact Couplings
        Atom                 a.u.       MegaHertz       Gauss      10(-4) cm-1
     1  O(17)              1.00293    -607.96945    -216.93862    -202.79678
     2  H(1)               0.00714      31.93094      11.39375      10.65101
     3  H(1)               0.00714      31.93094      11.39375      10.65101
 --------------------------------------------------------
       Center         ----  Spin Dipole Couplings  ----
                      3XX-RR        3YY-RR        3ZZ-RR
 --------------------------------------------------------
     1   Atom       -0.155975     -0.394076      0.550052
     2   Atom       -0.048496      0.073629     -0.025133
     3   Atom       -0.048496      0.073629     -0.025133
 --------------------------------------------------------
                        XY            XZ            YZ
 --------------------------------------------------------
     1   Atom        0.000000      0.000000      0.000000
     2   Atom        0.000000      0.000000     -0.042582
     3   Atom        0.000000      0.000000      0.042582
 --------------------------------------------------------


 ---------------------------------------------------------------------------------
              Anisotropic Spin Dipole Couplings in Principal Axis System
 ---------------------------------------------------------------------------------

       Atom             a.u.   MegaHertz   Gauss  10(-4) cm-1        Axes

              Baa    -0.3941    28.515    10.175     9.512 -0.0000  1.0000 -0.0000
     1 O(17)  Bbb    -0.1560    11.286     4.027     3.765  1.0000  0.0000  0.0000
              Bcc     0.5501   -39.801   -14.202   -13.276  0.0000  0.0000  1.0000
 
              Baa    -0.0485   -25.875    -9.233    -8.631  1.0000  0.0000  0.0000
     2 H(1)   Bbb    -0.0410   -21.853    -7.798    -7.289 -0.0000  0.3483  0.9374
              Bcc     0.0895    47.728    17.030    15.920 -0.0000  0.9374 -0.3483
 
              Baa    -0.0485   -25.875    -9.233    -8.631  1.0000  0.0000  0.0000
     3 H(1)   Bbb    -0.0410   -21.853    -7.798    -7.289  0.0000 -0.3483  0.9374
              Bcc     0.0895    47.728    17.030    15.920 -0.0000  0.9374  0.3483
 

 ---------------------------------------------------------------------------------

 1\1\GINC-N001\SP\UMP2-FC\6-31G(d)\H2O1(1-,2)\JORGE\04-Feb-2021\0\\# UM
 P2/6-31g(d) NoSymm 5D Density=Current\\Calculo de punto sencillo de H2
 O^-1 a nivel de teoria UMP2/6-31G(d), optimizada geometricamente a niv
 el de teoria B3LYP/6-311G(d,p)\\-1,2\O,0,0.,0.,0.118665\H,0,0.,0.75694
 4,-0.474661\H,0,0.,-0.756944,-0.474661\\Version=ES64L-G16RevB.01\HF=-7
 5.8061345\MP2=-76.0006321\PUHF=-75.8077931\PMP2-0=-76.0016399\S2=0.757
 261\S2-1=0.751554\S2A=0.750018\RMSD=3.294e-09\Dipole=0.,0.,0.2251847\Q
 uadrupole=0.5408825,-0.3091747,-0.2317078,0.,0.,0.\PG=C02V [C2(O1),SGV
 (H2)]\\@


 THERE ARE TWO THINGS THAT EVERYBODY THINKS THEY CAN DO BETTER THAN
 ANYONE ELSE - PUNCH THE FIRE, AND EDIT A DAILY PAPER.
 -- UNCLE ESEK, "CENTURY MAGAZINE", 1885
 Job cpu time:       0 days  0 hours  0 minutes 20.5 seconds.
 Elapsed time:       0 days  0 hours  0 minutes  1.6 seconds.
 File lengths (MBytes):  RWF=      6 Int=      0 D2E=      0 Chk=      1 Scr=      1
 Normal termination of Gaussian 16 at Thu Feb  4 20:12:00 2021.
