 Entering Gaussian System, Link 0=g16
 Initial command:
 /opt/g16/l1.exe "/scratch/1501/Gau-453357.inp" -scrdir="/scratch/1501/"
 Entering Link 1 = /opt/g16/l1.exe PID=    453358.
  
 Copyright (c) 1988-2017, Gaussian, Inc.  All Rights Reserved.
  
 This is part of the Gaussian(R) 16 program.  It is based on
 the Gaussian(R) 09 system (copyright 2009, Gaussian, Inc.),
 the Gaussian(R) 03 system (copyright 2003, Gaussian, Inc.),
 the Gaussian(R) 98 system (copyright 1998, Gaussian, Inc.),
 the Gaussian(R) 94 system (copyright 1995, Gaussian, Inc.),
 the Gaussian 92(TM) system (copyright 1992, Gaussian, Inc.),
 the Gaussian 90(TM) system (copyright 1990, Gaussian, Inc.),
 the Gaussian 88(TM) system (copyright 1988, Gaussian, Inc.),
 the Gaussian 86(TM) system (copyright 1986, Carnegie Mellon
 University), and the Gaussian 82(TM) system (copyright 1983,
 Carnegie Mellon University). Gaussian is a federally registered
 trademark of Gaussian, Inc.
  
 This software contains proprietary and confidential information,
 including trade secrets, belonging to Gaussian, Inc.
  
 This software is provided under written license and may be
 used, copied, transmitted, or stored only in accord with that
 written license.
  
 The following legend is applicable only to US Government
 contracts under FAR:
  
                    RESTRICTED RIGHTS LEGEND
  
 Use, reproduction and disclosure by the US Government is
 subject to restrictions as set forth in subparagraphs (a)
 and (c) of the Commercial Computer Software - Restricted
 Rights clause in FAR 52.227-19.
  
 Gaussian, Inc.
 340 Quinnipiac St., Bldg. 40, Wallingford CT 06492
  
  
 ---------------------------------------------------------------
 Warning -- This program may not be used in any manner that
 competes with the business of Gaussian, Inc. or will provide
 assistance to any competitor of Gaussian, Inc.  The licensee
 of this program is prohibited from giving any competitor of
 Gaussian, Inc. access to this program.  By using this program,
 the user acknowledges that Gaussian, Inc. is engaged in the
 business of creating and licensing software in the field of
 computational chemistry and represents and warrants to the
 licensee that it is not a competitor of Gaussian, Inc. and that
 it will not use this program in any manner prohibited above.
 ---------------------------------------------------------------
  

 Cite this work as:
 Gaussian 16, Revision B.01,
 M. J. Frisch, G. W. Trucks, H. B. Schlegel, G. E. Scuseria, 
 M. A. Robb, J. R. Cheeseman, G. Scalmani, V. Barone, 
 G. A. Petersson, H. Nakatsuji, X. Li, M. Caricato, A. V. Marenich, 
 J. Bloino, B. G. Janesko, R. Gomperts, B. Mennucci, H. P. Hratchian, 
 J. V. Ortiz, A. F. Izmaylov, J. L. Sonnenberg, D. Williams-Young, 
 F. Ding, F. Lipparini, F. Egidi, J. Goings, B. Peng, A. Petrone, 
 T. Henderson, D. Ranasinghe, V. G. Zakrzewski, J. Gao, N. Rega, 
 G. Zheng, W. Liang, M. Hada, M. Ehara, K. Toyota, R. Fukuda, 
 J. Hasegawa, M. Ishida, T. Nakajima, Y. Honda, O. Kitao, H. Nakai, 
 T. Vreven, K. Throssell, J. A. Montgomery, Jr., J. E. Peralta, 
 F. Ogliaro, M. J. Bearpark, J. J. Heyd, E. N. Brothers, K. N. Kudin, 
 V. N. Staroverov, T. A. Keith, R. Kobayashi, J. Normand, 
 K. Raghavachari, A. P. Rendell, J. C. Burant, S. S. Iyengar, 
 J. Tomasi, M. Cossi, J. M. Millam, M. Klene, C. Adamo, R. Cammi, 
 J. W. Ochterski, R. L. Martin, K. Morokuma, O. Farkas, 
 J. B. Foresman, and D. J. Fox, Gaussian, Inc., Wallingford CT, 2016.
 
 ******************************************
 Gaussian 16:  ES64L-G16RevB.01 20-Dec-2017
                 4-Feb-2021 
 ******************************************
 %chk=H2Onodiffcc_N-2.chk
 %mem=32GB
 %nprocshared=16
 Will use up to   16 processors via shared memory.
 -------------------------
 # CCSD/6-31g(d) NoSymm 5D
 -------------------------
 1/38=1,172=1/1;
 2/12=2,15=1,17=6,18=5,40=1/2;
 3/5=1,6=6,7=1,8=1,11=9,25=1,30=1/1,2,3;
 4//1;
 5/5=2,38=5/2;
 8/6=4,9=120000,10=2/1,4;
 9/5=7/13;
 6/7=2,8=2,9=2,10=2/1;
 99/5=1,9=1/99;
 ----------------------------------------------------------------------
 Calculo de punto sencillo de H2O^+2 a nivel de teoria CCSD/6-31G(d), o
 ptimizada geometricamente a nivel de teoria B3LYP/6-311G(d,p)
 ----------------------------------------------------------------------
 Symbolic Z-matrix:
 Charge =  2 Multiplicity = 1
 O                     0.        0.        0.11867 
 H                     0.        0.75694  -0.47466 
 H                     0.       -0.75694  -0.47466 
 
                          Input orientation:                          
 ---------------------------------------------------------------------
 Center     Atomic      Atomic             Coordinates (Angstroms)
 Number     Number       Type             X           Y           Z
 ---------------------------------------------------------------------
      1          8           0        0.000000    0.000000    0.118665
      2          1           0        0.000000    0.756944   -0.474661
      3          1           0        0.000000   -0.756944   -0.474661
 ---------------------------------------------------------------------
                    Distance matrix (angstroms):
                    1          2          3
     1  O    0.000000
     2  H    0.961769   0.000000
     3  H    0.961769   1.513888   0.000000
 Symmetry turned off by external request.
 Stoichiometry    H2O(2+)
 Framework group  C2V[C2(O),SGV(H2)]
 Deg. of freedom     2
 Full point group                 C2V     NOp   4
 Rotational constants (GHZ):         801.9747679         437.5972249         283.1154099
 Standard basis: 6-31G(d) (5D, 7F)
    18 basis functions,    36 primitive gaussians,    19 cartesian basis functions
     4 alpha electrons        4 beta electrons
       nuclear repulsion energy         9.1529448664 Hartrees.
 NAtoms=    3 NActive=    3 NUniq=    3 SFac= 1.00D+00 NAtFMM=   60 NAOKFM=F Big=F
 Integral buffers will be    131072 words long.
 Raffenetti 1 integral format.
 Two-electron integral symmetry is turned off.
 One-electron integrals computed using PRISM.
 NBasis=    18 RedAO= T EigKep=  6.30D-02  NBF=    18
 NBsUse=    18 1.00D-06 EigRej= -1.00D+00 NBFU=    18
 ExpMin= 1.61D-01 ExpMax= 5.48D+03 ExpMxC= 8.25D+02 IAcc=3 IRadAn=         5 AccDes= 0.00D+00
 Harris functional with IExCor=  205 and IRadAn=       5 diagonalized for initial guess.
 HarFok:  IExCor=  205 AccDes= 0.00D+00 IRadAn=         5 IDoV= 1 UseB2=F ITyADJ=14
 ICtDFT=  3500011 ScaDFX=  1.000000  1.000000  1.000000  1.000000
 FoFCou: FMM=F IPFlag=           0 FMFlag=      100000 FMFlg1=           0
         NFxFlg=           0 DoJE=T BraDBF=F KetDBF=T FulRan=T
         wScrn=  0.000000 ICntrl=       500 IOpCl=  0 I1Cent=   200000004 NGrid=           0
         NMat0=    1 NMatS0=      1 NMatT0=    0 NMatD0=    1 NMtDS0=    0 NMtDT0=    0
 Symmetry not used in FoFCou.
 Keep R1 ints in memory in canonical form, NReq=3304514.
 Requested convergence on RMS density matrix=1.00D-08 within 128 cycles.
 Requested convergence on MAX density matrix=1.00D-06.
 Requested convergence on             energy=1.00D-06.
 No special actions if energy rises.
 SCF Done:  E(RHF) =  -74.5736846663     A.U. after    9 cycles
            NFock=  9  Conv=0.14D-08     -V/T= 1.9950
 ExpMin= 1.61D-01 ExpMax= 5.48D+03 ExpMxC= 8.25D+02 IAcc=3 IRadAn=         5 AccDes= 0.00D+00
 HarFok:  IExCor=  205 AccDes= 0.00D+00 IRadAn=         5 IDoV=-2 UseB2=F ITyADJ=14
 ICtDFT= 12500011 ScaDFX=  1.000000  1.000000  1.000000  1.000000
 Range of M.O.s used for correlation:     2    18
 NBasis=    18 NAE=     4 NBE=     4 NFC=     1 NFV=     0
 NROrb=     17 NOA=     3 NOB=     3 NVA=    14 NVB=    14
 Semi-Direct transformation.
 ModeAB=           2 MOrb=             3 LenV=    4294789729
 LASXX=         5991 LTotXX=        5991 LenRXX=        5991
 LTotAB=        7092 MaxLAS=        9690 LenRXY=        9690
 NonZer=       11982 LenScr=      785920 LnRSAI=           0
 LnScr1=           0 LExtra=           0 Total=       801601
 MaxDsk=          -1 SrtSym=           F ITran=            4
 JobTyp=0 Pass  1:  I=   1 to   3.
 (rs|ai) integrals will be sorted in core.
 Spin components of T(2) and E(2):
     alpha-alpha T2 =       0.2204179450D-02 E2=     -0.9429229716D-02
     alpha-beta  T2 =       0.2343165575D-01 E2=     -0.9007168938D-01
     beta-beta   T2 =       0.2204179450D-02 E2=     -0.9429229716D-02
 ANorm=    0.1013824450D+01
 E2 =    -0.1089301488D+00 EUMP2 =    -0.74682614815080D+02
 Keep R2 and R3 ints in memory in canonical form, NReq=3321678.
 CIDS: In Core Option IDoMem=           1.
 Iterations=  50 Convergence= 0.100D-06
 Produce multiple copies of IABC intergrals
 Iteration Nr.   1
 **********************
 DD1Dir will call FoFMem   1 times, MxPair=        12
 NAB=     6 NAA=     0 NBB=     0.
 MP4(R+Q)=  0.12072979D-02
 E3=       -0.17707373D-01        EUMP3=      -0.74700322188D+02
 E4(DQ)=   -0.38891262D-02        UMP4(DQ)=   -0.74704211314D+02
 E4(SDQ)=  -0.44089439D-02        UMP4(SDQ)=  -0.74704731132D+02
 DE(Corr)= -0.12539557     E(Corr)=     -74.699080232    
 NORM(A)=   0.10210246D+01
 Iteration Nr.   2
 **********************
 DD1Dir will call FoFMem   1 times, MxPair=        12
 NAB=     6 NAA=     0 NBB=     0.
 DE(Corr)= -0.13106712     E(CORR)=     -74.704751786     Delta=-5.67D-03
 NORM(A)=   0.10255696D+01
 Iteration Nr.   3
 **********************
 DD1Dir will call FoFMem   1 times, MxPair=        12
 NAB=     6 NAA=     0 NBB=     0.
 DE(Corr)= -0.13370169     E(CORR)=     -74.707386360     Delta=-2.63D-03
 NORM(A)=   0.10296849D+01
 Iteration Nr.   4
 **********************
 DD1Dir will call FoFMem   1 times, MxPair=        12
 NAB=     6 NAA=     0 NBB=     0.
 DE(Corr)= -0.13513744     E(CORR)=     -74.708822105     Delta=-1.44D-03
 NORM(A)=   0.10338130D+01
 Iteration Nr.   5
 **********************
 DD1Dir will call FoFMem   1 times, MxPair=        12
 NAB=     6 NAA=     0 NBB=     0.
 DE(Corr)= -0.13586203     E(CORR)=     -74.709546700     Delta=-7.25D-04
 NORM(A)=   0.10350024D+01
 Iteration Nr.   6
 **********************
 DD1Dir will call FoFMem   1 times, MxPair=        12
 NAB=     6 NAA=     0 NBB=     0.
 DE(Corr)= -0.13600813     E(CORR)=     -74.709692792     Delta=-1.46D-04
 NORM(A)=   0.10352021D+01
 Iteration Nr.   7
 **********************
 DD1Dir will call FoFMem   1 times, MxPair=        12
 NAB=     6 NAA=     0 NBB=     0.
 DE(Corr)= -0.13603424     E(CORR)=     -74.709718908     Delta=-2.61D-05
 NORM(A)=   0.10352223D+01
 Iteration Nr.   8
 **********************
 DD1Dir will call FoFMem   1 times, MxPair=        12
 NAB=     6 NAA=     0 NBB=     0.
 DE(Corr)= -0.13603800     E(CORR)=     -74.709722671     Delta=-3.76D-06
 NORM(A)=   0.10352317D+01
 Iteration Nr.   9
 **********************
 DD1Dir will call FoFMem   1 times, MxPair=        12
 NAB=     6 NAA=     0 NBB=     0.
 DE(Corr)= -0.13603894     E(CORR)=     -74.709723603     Delta=-9.32D-07
 NORM(A)=   0.10352333D+01
 Iteration Nr.  10
 **********************
 DD1Dir will call FoFMem   1 times, MxPair=        12
 NAB=     6 NAA=     0 NBB=     0.
 DE(Corr)= -0.13603841     E(CORR)=     -74.709723071     Delta= 5.31D-07
 NORM(A)=   0.10352306D+01
 Iteration Nr.  11
 **********************
 DD1Dir will call FoFMem   1 times, MxPair=        12
 NAB=     6 NAA=     0 NBB=     0.
 DE(Corr)= -0.13603760     E(CORR)=     -74.709722271     Delta= 8.00D-07
 NORM(A)=   0.10352266D+01
 Iteration Nr.  12
 **********************
 DD1Dir will call FoFMem   1 times, MxPair=        12
 NAB=     6 NAA=     0 NBB=     0.
 DE(Corr)= -0.13603669     E(CORR)=     -74.709721355     Delta= 9.16D-07
 NORM(A)=   0.10352229D+01
 Iteration Nr.  13
 **********************
 DD1Dir will call FoFMem   1 times, MxPair=        12
 NAB=     6 NAA=     0 NBB=     0.
 DE(Corr)= -0.13603596     E(CORR)=     -74.709720631     Delta= 7.24D-07
 NORM(A)=   0.10352202D+01
 Iteration Nr.  14
 **********************
 DD1Dir will call FoFMem   1 times, MxPair=        12
 NAB=     6 NAA=     0 NBB=     0.
 DE(Corr)= -0.13603556     E(CORR)=     -74.709720229     Delta= 4.02D-07
 NORM(A)=   0.10352194D+01
 Iteration Nr.  15
 **********************
 DD1Dir will call FoFMem   1 times, MxPair=        12
 NAB=     6 NAA=     0 NBB=     0.
 DE(Corr)= -0.13603550     E(CORR)=     -74.709720163     Delta= 6.61D-08
 NORM(A)=   0.10352193D+01
 Wavefunction amplitudes converged. E(Corr)=     -74.709720163    
 Dominant configurations:
 ***********************
 Spin Case        I    J    A    B          Value
   ABAB           4    4    5    5      -0.169453D+00
 Largest amplitude= 1.69D-01
 Discarding MO integrals.

 **********************************************************************

            Population analysis using the SCF Density.

 **********************************************************************

 Alpha  occ. eigenvalues --  -21.80252  -2.39078  -1.76701  -1.64894
 Alpha virt. eigenvalues --   -0.95233  -0.48149  -0.40670   0.18890   0.24475
 Alpha virt. eigenvalues --    0.27475   0.31837   0.46031   0.71110   1.01494
 Alpha virt. eigenvalues --    1.02182   1.05227   1.64117   1.96622
          Condensed to atoms (all electrons):
               1          2          3
     1  O    7.125770   0.169426   0.169426
     2  H    0.169426   0.097837   0.000426
     3  H    0.169426   0.000426   0.097837
 Mulliken charges:
               1
     1  O    0.535377
     2  H    0.732311
     3  H    0.732311
 Sum of Mulliken charges =   2.00000
 Mulliken charges with hydrogens summed into heavy atoms:
               1
     1  O    2.000000
 Electronic spatial extent (au):  <R**2>=             10.8663
 Charge=              2.0000 electrons
 Dipole moment (field-independent basis, Debye):
    X=             -0.0000    Y=             -0.0000    Z=             -2.4761  Tot=              2.4761
 Quadrupole moment (field-independent basis, Debye-Ang):
   XX=             -2.9468   YY=             -0.5477   ZZ=             -2.9114
   XY=             -0.0000   XZ=              0.0000   YZ=             -0.0000
 Traceless Quadrupole moment (field-independent basis, Debye-Ang):
   XX=             -0.8115   YY=              1.5876   ZZ=             -0.7761
   XY=             -0.0000   XZ=              0.0000   YZ=             -0.0000
 Octapole moment (field-independent basis, Debye-Ang**2):
  XXX=             -0.0000  YYY=             -0.0000  ZZZ=             -1.7703  XYY=             -0.0000
  XXY=             -0.0000  XXZ=             -0.1965  XZZ=              0.0000  YZZ=             -0.0000
  YYZ=             -2.2042  XYZ=             -0.0000
 Hexadecapole moment (field-independent basis, Debye-Ang**3):
 XXXX=             -1.2095 YYYY=             -0.9212 ZZZZ=             -2.8792 XXXY=             -0.0000
 XXXZ=             -0.0000 YYYX=             -0.0000 YYYZ=             -0.0000 ZZZX=              0.0000
 ZZZY=             -0.0000 XXYY=             -0.7547 XXZZ=             -0.7336 YYZZ=             -0.1291
 XXYZ=             -0.0000 YYXZ=             -0.0000 ZZXY=             -0.0000
 N-N= 9.152944866370D+00 E-N=-1.871814553091D+02  KE= 7.494671573287D+01
 1\1\GINC-N001\SP\RCCSD-FC\6-31G(d)\H2O1(2+)\JORGE\04-Feb-2021\0\\# CCS
 D/6-31g(d) NoSymm 5D\\Calculo de punto sencillo de H2O^+2 a nivel de t
 eoria CCSD/6-31G(d), optimizada geometricamente a nivel de teoria B3LY
 P/6-311G(d,p)\\2,1\O,0,0.,0.,0.118665\H,0,0.,0.756944,-0.474661\H,0,0.
 ,-0.756944,-0.474661\\Version=ES64L-G16RevB.01\HF=-74.5736847\MP2=-74.
 6826148\MP3=-74.7003222\MP4D=-74.7054186\MP4DQ=-74.7042113\MP4SDQ=-74.
 7047311\CCSD=-74.7097202\RMSD=1.431e-09\PG=C02V [C2(O1),SGV(H2)]\\@


 ALL SCIENCE IS EITHER PHYSICS, OR STAMP COLLECTING.
   --ERNEST RUTHERFORD, 1871-1937.
 Job cpu time:       0 days  0 hours  0 minutes 12.9 seconds.
 Elapsed time:       0 days  0 hours  0 minutes  1.1 seconds.
 File lengths (MBytes):  RWF=     13 Int=      0 D2E=      0 Chk=      1 Scr=      1
 Normal termination of Gaussian 16 at Thu Feb  4 21:03:14 2021.
