Calculo de punto sencillo de H2O a nivel de teoria CCSD/6-31G(d), optimi
SP        RCCSD-FC                                                    6-31G(d)            
Number of atoms                            I                3
Info1-9                                    I   N=           9
          12          12           0           0           0         110
           1          14         301
Full Title                                 C   N=          11
Calculo de punto sencillo de H2O a nivel de teoria CCSD/6-31
G(d), optimizada geometricamente a nivel de teoria B3LYP/6-3
11G(d,p)    
Route                                      C   N=           4
# CCSD/6-31g(d) NoSymm 5D Density=Current       
Charge                                     I                0
Multiplicity                               I                1
Number of electrons                        I               10
Number of alpha electrons                  I                5
Number of beta electrons                   I                5
Number of basis functions                  I               18
Number of independent functions            I               18
Number of point charges in /Mol/           I                0
Number of translation vectors              I                0
Atomic numbers                             I   N=           3
           8           1           1
Nuclear charges                            R   N=           3
  8.00000000E+00  1.00000000E+00  1.00000000E+00
Current cartesian coordinates              R   N=           9
  0.00000000E+00  0.00000000E+00  2.24244351E-01  0.00000000E+00  1.43041685E+00
 -8.96979292E-01  0.00000000E+00 -1.43041685E+00 -8.96979292E-01
Number of symbols in /Mol/                 I                0
Force Field                                I                0
Atom Types                                 C   N=           3
                                    
Int Atom Types                             I   N=           3
           0           0           0
MM charges                                 R   N=           3
  0.00000000E+00  0.00000000E+00  0.00000000E+00
Integer atomic weights                     I   N=           3
          16           1           1
Real atomic weights                        R   N=           3
  1.59949146E+01  1.00782504E+00  1.00782504E+00
Atom fragment info                         I   N=           3
           0           0           0
Atom residue num                           I   N=           3
           0           0           0
Nuclear spins                              I   N=           3
           0           1           1
Nuclear ZEff                               R   N=           3
 -5.60000000E+00 -1.00000000E+00 -1.00000000E+00
Nuclear ZNuc                               R   N=           3
  8.00000000E+00  1.00000000E+00  1.00000000E+00
Nuclear QMom                               R   N=           3
  0.00000000E+00  0.00000000E+00  0.00000000E+00
Nuclear GFac                               R   N=           3
  0.00000000E+00  2.79284600E+00  2.79284600E+00
MicOpt                                     I   N=           3
          -1          -1          -1
Number of residues                         I                0
Number of secondary structures             I                0
Number of contracted shells                I                8
Number of primitive shells                 I               19
Pure/Cartesian d shells                    I                0
Pure/Cartesian f shells                    I                0
Highest angular momentum                   I                2
Largest degree of contraction              I                6
Shell types                                I   N=           8
           0          -1          -1          -2           0           0
           0           0
Number of primitives per shell             I   N=           8
           6           3           1           1           3           1
           3           1
Shell to atom map                          I   N=           8
           1           1           1           1           2           2
           3           3
Primitive exponents                        R   N=          19
  5.48467166E+03  8.25234946E+02  1.88046958E+02  5.29645000E+01  1.68975704E+01
  5.79963534E+00  1.55396162E+01  3.59993359E+00  1.01376175E+00  2.70005823E-01
  8.00000000E-01  1.87311370E+01  2.82539436E+00  6.40121692E-01  1.61277759E-01
  1.87311370E+01  2.82539436E+00  6.40121692E-01  1.61277759E-01
Contraction coefficients                   R   N=          19
  1.83107443E-03  1.39501722E-02  6.84450781E-02  2.32714336E-01  4.70192898E-01
  3.58520853E-01 -1.10777550E-01 -1.48026263E-01  1.13076702E+00  1.00000000E+00
  1.00000000E+00  3.34946043E-02  2.34726953E-01  8.13757326E-01  1.00000000E+00
  3.34946043E-02  2.34726953E-01  8.13757326E-01  1.00000000E+00
P(S=P) Contraction coefficients            R   N=          19
  0.00000000E+00  0.00000000E+00  0.00000000E+00  0.00000000E+00  0.00000000E+00
  0.00000000E+00  7.08742682E-02  3.39752839E-01  7.27158577E-01  1.00000000E+00
  0.00000000E+00  0.00000000E+00  0.00000000E+00  0.00000000E+00  0.00000000E+00
  0.00000000E+00  0.00000000E+00  0.00000000E+00  0.00000000E+00
Coordinates of each shell                  R   N=          24
  0.00000000E+00  0.00000000E+00  2.24244351E-01  0.00000000E+00  0.00000000E+00
  2.24244351E-01  0.00000000E+00  0.00000000E+00  2.24244351E-01  0.00000000E+00
  0.00000000E+00  2.24244351E-01  0.00000000E+00  1.43041685E+00 -8.96979292E-01
  0.00000000E+00  1.43041685E+00 -8.96979292E-01  0.00000000E+00 -1.43041685E+00
 -8.96979292E-01  0.00000000E+00 -1.43041685E+00 -8.96979292E-01
Num ILSW                                   I              100
ILSW                                       I   N=         100
           0           0           0           0           2           0
           0           0           0           0           0          -1
           5           0           0           0           0           0
           0           0           1           0           0           0
           1           1           0           0           0           0
           0           0      100000           0          -1           0
           0           0           0           0           0           0
           0           0           0           1           1           0
           0 -2000000000           1           0           0           0
           0           0           4          52           0           0
           0           0           0           0           0           0
           0           0           0           0           4           1
           0           0           0           0           0           0
           0           0           0           0           0           0
           0           0           0           0           0           0
           0           0           0           0           0           0
           0           0           0           0
Num RLSW                                   I               52
RLSW                                       R   N=          52
  1.00000000E+00  1.00000000E+00  1.00000000E+00  1.00000000E+00  1.00000000E+00
  0.00000000E+00  0.00000000E+00  1.00000000E+00  0.00000000E+00  0.00000000E+00
  0.00000000E+00  0.00000000E+00  1.00000000E+00  0.00000000E+00  0.00000000E+00
  0.00000000E+00  0.00000000E+00  1.00000000E+00  0.00000000E+00  0.00000000E+00
  0.00000000E+00  0.00000000E+00  1.00000000E+00  0.00000000E+00  0.00000000E+00
  0.00000000E+00  0.00000000E+00  1.00000000E+00  0.00000000E+00  0.00000000E+00
  0.00000000E+00  0.00000000E+00  1.00000000E+00  0.00000000E+00  0.00000000E+00
  0.00000000E+00  0.00000000E+00  0.00000000E+00  1.00000000E+00  1.00000000E+00
  0.00000000E+00  1.00000000E+00  0.00000000E+00  0.00000000E+00  0.00000000E+00
  0.00000000E+00  0.00000000E+00  0.00000000E+00  0.00000000E+00  0.00000000E+00
  0.00000000E+00  0.00000000E+00
MxBond                                     I                2
NBond                                      I   N=           3
           2           1           1
IBond                                      I   N=           6
           2           3           1           0           1           0
RBond                                      R   N=           6
  1.00000000E+00  1.00000000E+00  1.00000000E+00  0.00000000E+00  1.00000000E+00
  0.00000000E+00
Virial Ratio                               R      2.000623944770052E+00
SCF Energy                                 R     -7.600887746542105E+01
MP2 Energy                                 R     -7.619384777615794E+01
MP3 Energy                                 R     -7.619999500616457E+01
MP4D Energy                                R     -7.620334008256503E+01
MP4DQ Energy                               R     -7.620212012071293E+01
MP4SDQ Energy                              R     -7.620266813730123E+01
Cluster Energy                             R     -7.620307778991294E+01
Total Energy                               R     -7.620307778991294E+01
Post-SCF wavefunction norm                 R      1.027845825196573E+00
RMS Density                                R      4.122689644349387E-09
Job Status                                 I                1
Nuclear derivative order                   I                0
External E-field                           R   N=          35
  0.00000000E+00  0.00000000E+00  0.00000000E+00  0.00000000E+00  0.00000000E+00
  0.00000000E+00  0.00000000E+00  0.00000000E+00  0.00000000E+00  0.00000000E+00
  0.00000000E+00  0.00000000E+00  0.00000000E+00  0.00000000E+00  0.00000000E+00
  0.00000000E+00  0.00000000E+00  0.00000000E+00  0.00000000E+00  0.00000000E+00
  0.00000000E+00  0.00000000E+00  0.00000000E+00  0.00000000E+00  0.00000000E+00
  0.00000000E+00  0.00000000E+00  0.00000000E+00  0.00000000E+00  0.00000000E+00
  0.00000000E+00  0.00000000E+00  0.00000000E+00  0.00000000E+00  0.00000000E+00
IOpCl                                      I                0
IROHF                                      I                0
Alpha Orbital Energies                     R   N=          18
 -2.05561473E+01 -1.33959963E+00 -7.02944256E-01 -5.71568989E-01 -4.97553633E-01
  2.13559421E-01  3.03223229E-01  1.01733382E+00  1.16228635E+00  1.16811006E+00
  1.19840829E+00  1.37911761E+00  1.66049030E+00  2.01953654E+00  2.03517564E+00
  2.06757165E+00  2.62471681E+00  2.93813706E+00
Alpha MO coefficients                      R   N=         324
  9.95793413E-01  2.19541398E-02 -9.04642150E-17  7.62089166E-17 -1.63730630E-03
 -8.09749605E-03 -8.81904201E-17 -3.59548026E-16  1.83263408E-03 -3.03037012E-05
  2.67611939E-18  3.60946957E-17  2.90675324E-04  2.90594213E-18  2.81593269E-04
  1.91680585E-03  2.81593269E-04  1.91680585E-03 -2.14007422E-01  4.68644470E-01
 -3.81450463E-16 -2.52667899E-17 -9.16548805E-02  4.94217934E-01 -8.75464204E-17
  1.25233202E-15 -5.73225572E-02  6.25979253E-03  5.98533544E-17 -2.43748737E-18
 -1.60626448E-02 -5.90981465E-17  1.30007349E-01 -7.99821861E-03  1.30007349E-01
 -7.99821861E-03  3.06902487E-16 -2.00862327E-16  2.18715246E-15  5.06805115E-01
 -3.50600894E-16 -3.67109036E-16  1.67134263E-15  3.08380466E-01 -5.98138579E-16
  2.91199675E-16 -3.72239546E-16 -5.13791602E-02  1.52612236E-16  6.75376632E-17
  2.30205940E-01  1.12495256E-01 -2.30205940E-01 -1.12495256E-01 -7.03913153E-02
  1.72067358E-01 -5.03143529E-15  8.90835999E-16  5.53536648E-01  2.83068021E-01
 -3.19746202E-15  9.76492998E-16  4.07222114E-01 -3.50380446E-02  6.39615892E-17
 -3.38532423E-16  6.96070741E-03  2.32419073E-18 -1.42120559E-01 -7.80669167E-02
 -1.42120559E-01 -7.80669167E-02 -6.27068011E-16  1.46093800E-15  6.39367125E-01
 -1.31191476E-15  3.67015665E-15  3.42445256E-15  5.11738716E-01 -7.38858094E-16
  1.99451054E-15 -3.70454351E-16 -3.38991528E-02  1.69957769E-16  2.78529776E-16
 -2.60533495E-16 -1.55371714E-15 -2.45045154E-15 -3.28413977E-16 -1.08627803E-15
 -8.58529339E-02  1.01713309E-01  8.19751010E-17 -7.49880645E-16 -2.20481785E-01
  1.18782619E+00 -6.65310011E-16 -4.62037781E-15 -4.90485963E-01  1.36754828E-02
  5.12267010E-17  5.35770517E-16 -8.45562996E-03 -8.73491392E-17 -5.64464068E-02
 -9.96028536E-01 -5.64464068E-02 -9.96028536E-01 -6.57238004E-17 -9.35144968E-16
 -3.73876761E-17 -3.31002268E-01  2.05033857E-15  9.97365866E-17  1.81513161E-16
 -8.29967395E-01  1.10251456E-16  2.91464492E-17 -1.69544534E-16  2.21325904E-02
  1.70112839E-16 -1.78493486E-17  5.18743433E-02  1.38654007E+00 -5.18743433E-02
 -1.38654007E+00 -8.88627722E-16  5.25154963E-15  2.41915167E-15 -9.83002682E-02
 -1.48266024E-16 -4.41092249E-15 -2.44261021E-15 -6.39426703E-01 -7.02264218E-15
  6.07567319E-16  5.55862227E-16 -1.97368857E-01  2.15180917E-15  4.88859367E-16
  8.38306513E-01 -4.79013333E-01 -8.38306513E-01  4.79013333E-01  6.53207377E-02
 -3.18925118E-01 -1.84690939E-13 -3.04637103E-15  3.49795867E-01  1.11396886E-01
  1.98515086E-13 -3.48614808E-15  1.96927186E-01 -1.64026982E-02 -2.46040776E-15
 -3.35980545E-15 -2.22790091E-01  1.51719123E-16  8.78247969E-01 -4.81872245E-01
  8.78247969E-01 -4.81872245E-01 -1.35738964E-14  6.82573765E-14 -9.62912967E-01
 -1.21912512E-16 -4.80843800E-14 -2.10423763E-14  1.03590454E+00 -1.30706451E-15
 -6.25576119E-14  3.57879546E-15 -1.48338865E-02 -8.51801049E-16  4.40397168E-14
 -2.48822856E-17 -1.70150570E-13  8.73564009E-14 -1.74431170E-13  9.09456142E-14
  4.50211927E-02 -3.59470298E-01 -2.08597732E-14 -4.50622002E-15 -9.09755607E-01
  8.83633191E-02  2.22172833E-14  1.81560014E-15  1.14369730E+00 -2.20382467E-02
 -9.43091679E-16 -1.45328499E-15 -4.21652835E-02  7.91139132E-17  1.55571384E-01
  1.12962648E-01  1.55571384E-01  1.12962648E-01 -6.03051632E-16  1.06554015E-14
  1.56708260E-16 -1.03602710E+00  1.06943590E-15 -1.42753953E-14  2.08927797E-16
  1.53335900E+00 -8.13205135E-16 -1.04222609E-17  6.45837673E-16 -1.55651684E-02
  4.66258353E-16  1.33476436E-15  9.45918084E-02 -9.05456118E-01 -9.45918084E-02
  9.05456118E-01  6.48399124E-02 -1.60156530E+00  9.11285253E-16 -5.39683288E-15
  2.45010671E-01  2.50249162E+00 -9.14450733E-16  8.88885082E-15 -7.22513183E-01
  4.39241560E-02  2.47651063E-16  1.82055449E-16  2.53055635E-01 -1.16549025E-15
 -2.09768911E-01 -6.36505826E-01 -2.09768911E-01 -6.36505826E-01 -7.21089951E-04
  1.16090742E-01  1.86586842E-16  6.22365609E-16 -7.15776150E-03 -2.27367739E-01
 -2.17738482E-16  1.19699540E-15  1.34908488E-01  9.86358262E-01  3.61922698E-15
 -8.61009860E-16  1.28294349E-01 -2.31298991E-14  7.72852686E-02  4.31007888E-02
  7.72852686E-02  4.31007888E-02 -5.89147198E-18  1.92372382E-15 -2.71729845E-16
  2.28987848E-15  1.34368445E-18 -3.41603168E-15 -2.30136054E-15 -3.70342861E-15
  2.87292761E-15  2.27730825E-14 -8.11773462E-14  9.99290904E-16  5.90776726E-15
  1.00000000E+00  1.94618685E-15  3.13420969E-15  3.39615432E-15 -4.06214957E-15
  6.09983767E-17  9.53330579E-16  7.39532669E-03  6.84407735E-16 -1.72087698E-15
 -3.02099711E-15  3.27364182E-02 -2.66435732E-15  2.69393412E-15 -3.69401494E-15
  9.99315167E-01  2.11809035E-15  1.98399499E-15  8.21266639E-14  1.57379477E-15
  3.27173836E-15  1.08366265E-15 -1.41787562E-15 -1.97880852E-02 -5.71341907E-01
 -8.63775455E-16 -7.68738236E-16  4.65178365E-02  1.37292939E+00 -8.49565036E-18
  1.60456707E-15 -7.33106708E-01  1.66916459E-01  2.47957444E-15 -1.45466767E-16
 -1.07170728E+00  3.12804871E-15 -8.46424717E-01 -1.22222946E-01 -8.46424717E-01
 -1.22222946E-01  8.77836756E-17  1.83202846E-16 -4.69651979E-16  2.22843921E-02
 -6.39404012E-17 -1.70305079E-15  5.98319119E-16 -8.47747097E-01  1.10577774E-15
  9.90760319E-16 -2.06019422E-15  1.27956324E+00 -5.38935749E-16 -7.79362604E-16
  9.42045303E-01 -4.47070551E-02 -9.42045303E-01  4.47070551E-02
Orthonormal basis                          R   N=         324
  5.29754065E-02  1.89461880E-01  1.49362543E-17 -3.35486742E-18 -6.69700749E-02
  2.51236217E-01  1.35518565E-18 -9.25816485E-18 -1.20849292E-01  4.87833645E-03
  2.47099600E-41  2.23599194E-18 -3.69260726E-02  0.00000000E+00  1.75470646E-01
  2.29903206E-01  1.75470646E-01  2.29903206E-01 -1.16325562E-17 -6.58901910E-17
 -1.87005569E-16  2.68325350E-01 -1.28533227E-16  4.85780520E-17 -1.74669666E-16
  3.84743925E-01 -7.19499310E-18  2.30620600E-18  0.00000000E+00 -1.46940550E-01
  2.48291752E-17  8.51823152E-27  2.63043966E-01  1.64872903E-01 -2.63043966E-01
 -1.64872903E-01  1.60443675E-01  2.83112581E-01 -5.21363531E-16 -2.23330231E-17
  4.34919400E-01  2.50156487E-01 -4.85128078E-16  3.22707207E-17  4.69165754E-01
 -1.01789698E-02 -3.01473852E-34 -2.50624074E-17  7.70486787E-02 -9.20025184E-39
 -1.19353201E-01  1.22196686E-02 -1.19353201E-01  1.22196686E-02  2.94501229E-16
  1.51477136E-16  5.77057836E-01  8.15514239E-17  5.40596917E-16  3.04196926E-16
  5.77057836E-01  1.07455254E-16  4.46154812E-16  3.08902191E-16  0.00000000E+00
 -1.55000667E-16 -2.15202737E-18  8.64061504E-23  4.81626948E-17  1.10232176E-16
 -2.23647552E-16 -9.36255094E-17  2.23952472E-16  9.04984783E-17  7.04320615E-17
  3.71794071E-01 -2.37805857E-16  2.05025886E-16  1.24632135E-16  2.61844932E-01
 -1.22835269E-16 -1.75076115E-17  2.07075254E-16  7.71569925E-01  8.77193847E-16
 -4.04443856E-19 -1.81983420E-01  2.61085026E-02  1.81983420E-01 -2.61085026E-02
  3.15893995E-01  1.46468835E-01 -1.33065838E-17 -3.17719327E-16 -2.83268783E-01
  4.15160948E-02  1.48495688E-17 -4.72993607E-16 -1.70028837E-01 -1.04236456E-01
 -3.78195859E-31 -8.60443103E-16  7.89007274E-01  2.95465515E-33 -1.63295414E-01
 -1.62743978E-02 -1.63295414E-01 -1.62743978E-02 -5.86699879E-16 -1.94856467E-16
 -4.96839318E-16 -1.58878029E-16  2.02736103E-16  1.13878702E-17 -5.09699174E-16
  3.29357135E-17  1.41841441E-16  9.91385951E-01 -2.99760217E-15 -8.16508468E-17
  1.30972884E-01  3.81639165E-17  7.24183019E-17  1.89633706E-16  5.75448936E-17
  1.32032596E-16 -1.48814957E-19 -2.23316938E-17 -8.25726340E-17  4.83151405E-16
  3.46729218E-18  4.78926249E-17  8.46201253E-17 -4.25712544E-16 -1.80188971E-17
  2.74667063E-15  9.99745759E-01 -4.27985915E-16  3.57696225E-16 -2.25481319E-02
 -8.32034355E-17  1.67666044E-17  6.58153076E-17 -4.66861543E-17 -1.95880234E-32
 -2.71647456E-30  1.29016799E-17  3.37083419E-17  4.56880336E-31  5.86821241E-30
 -1.28804234E-17 -2.19481171E-17 -2.14681081E-30  2.31527533E-17  2.25481319E-02
 -4.48733220E-17  3.05873092E-18  9.99745759E-01 -5.83177734E-17  7.12251629E-17
  5.83177734E-17 -7.12251629E-17  8.46564390E-01  1.09580183E-01 -8.39513415E-17
 -3.49265403E-17 -1.82140862E-01 -9.90599974E-02 -3.37657817E-16  2.06138853E-17
 -4.64414193E-02  5.58675926E-02 -2.48545899E-30  1.60792325E-16 -4.22884072E-01
  3.26216493E-32  1.53745747E-02 -1.73583623E-01  1.53745747E-02 -1.73583623E-01
 -4.03283660E-15  6.24809024E-15 -2.69242281E-16  9.77582480E-01 -6.67087868E-15
  1.96325667E-15  2.83024204E-16 -3.67265104E-01  2.68178536E-15  3.45469975E-17
 -5.83964829E-16 -3.88658620E-01 -2.32039806E-15 -3.38530335E-17 -1.35912137E-01
 -3.23325175E-01  1.35912137E-01  3.23325175E-01  4.25677672E-01 -6.64752309E-01
 -3.39857333E-16  9.50397551E-15  7.07377863E-01 -2.12328485E-01  2.64608812E-16
 -3.52107704E-15 -2.78763464E-01 -2.84277950E-02  1.97171531E-24 -3.44152432E-15
  2.15181309E-01 -4.44702104E-26  1.17365301E-01  2.98648100E-01  1.17365301E-01
  2.98648100E-01  1.27954153E-16 -6.53893567E-16  1.00152416E+00  5.76054382E-16
 -1.26080264E-16 -6.04946335E-17 -1.00152416E+00 -3.92136433E-16 -8.65094581E-17
  1.19919685E-16  2.45700865E-17 -2.02745382E-17 -2.13688837E-16  6.28994214E-16
 -5.00925053E-16  3.85202750E-16 -6.97485745E-16  1.09282124E-15  1.73928222E-01
 -7.88921240E-01 -4.90638727E-16 -4.48015719E-18 -7.18841665E-01  2.21751494E-01
  8.10023572E-16 -6.61987595E-18  8.86674979E-01  4.73234577E-03  7.18261134E-23
 -4.57655025E-16 -3.58210110E-02 -1.61995663E-24 -1.23816322E-01  4.03787724E-01
 -1.23816322E-01  4.03787724E-01  6.37476142E-02 -2.71729300E-01  1.22817184E-15
  3.26376588E-16 -2.57814251E-02  1.58874362E-01 -8.08415174E-16 -8.89079203E-18
  5.75308467E-01 -7.21345329E-02 -2.99992030E-20 -7.24163459E-16  5.46015025E-01
  6.76598005E-22  1.08671698E+00 -6.19544299E-01  1.08671698E+00 -6.19544299E-01
  9.56718679E-17 -4.67396003E-16 -4.75799010E-16 -3.73804382E-02 -2.18816538E-16
  6.39436457E-17  7.37061726E-16 -7.08252621E-01  5.72685028E-16  2.60231494E-16
 -6.41249393E-16  8.80666428E-01  4.77888394E-16 -1.90265913E-16  1.21933106E+00
 -6.96123288E-01 -1.21933106E+00  6.96123288E-01  1.54189416E-16  3.31394088E-16
  1.98067978E-17 -5.31630969E-01  3.93897894E-16 -2.11789738E-15  9.70684440E-17
  1.84650475E+00  7.02189415E-16 -1.14781937E-16  7.77184746E-17 -3.68873890E-01
  4.79775628E-16  1.22530744E-16 -2.17462769E-01 -1.53930513E+00  2.17462769E-01
  1.53930513E+00 -9.70852153E-03 -1.45199034E+00 -3.74082030E-16 -3.00602965E-16
  2.25473471E-01  3.11415411E+00 -4.53591368E-16  1.46028970E-15 -1.17197327E+00
  4.36782995E-02 -2.44053114E-16 -4.36685269E-16 -3.30618455E-01  5.50434124E-18
 -5.65882864E-01 -9.72450955E-01 -5.65882864E-01 -9.72450955E-01
Total SCF Density                          R   N=         171
  2.08471727E+00 -1.81087309E-01  4.99433597E-01 -1.10415526E-16 -2.24841525E-16
  8.17580640E-01  3.48256501E-16  8.26354030E-17  5.39329773E-16  5.13702850E-01
 -4.19595337E-02  1.04512180E-01 -8.06792814E-16  6.35230187E-16  6.29612237E-01
 -2.67510539E-01  5.60282989E-01  1.15491366E-15  1.06020087E-16  2.22808592E-01
  6.48888880E-01 -3.29810554E-16  3.08950806E-16  6.54377823E-01  3.51374845E-16
  2.32834583E-16  1.60954564E-15  5.23753027E-01 -1.20027560E-15  1.37017092E-15
  4.04147037E-16  3.12577595E-01  6.36425084E-16  1.57008214E-15  2.74614255E-16
  1.90197023E-01 -2.91450452E-02  8.64919352E-02 -1.50397464E-15  1.22432895E-16
  4.61326511E-01  1.73853765E-01 -5.53104436E-16  2.81498991E-16  3.38238169E-01
  2.19311152E-03 -6.19190380E-03 -1.25899476E-16  2.32415718E-16 -3.99370654E-02
 -1.36484057E-02 -1.56176733E-16  1.26872241E-16 -2.92542989E-02  2.53370099E-03
  1.32210678E-17 -2.08203265E-17 -4.33480077E-02 -2.88360214E-16 -1.89000702E-16
 -1.36843257E-16 -3.46950178E-02 -1.79489482E-16 -8.99833737E-17  2.13831762E-17
  2.29830511E-03  8.90517021E-17 -9.65602575E-17 -7.41729251E-18 -5.20784424E-02
 -3.38424427E-16 -1.56925751E-16  2.20357930E-18 -3.16886587E-02 -2.13840319E-16
 -6.23286515E-18  2.67278618E-17  5.27963621E-03  6.47400883E-03 -1.26471552E-02
  2.98322481E-16  1.67947029E-16  1.06495010E-02 -1.19408944E-02  2.43316929E-16
  6.72788768E-17  7.51167712E-03 -6.88894418E-04 -1.99146616E-17 -2.02957387E-17
  6.13088993E-04  3.07551143E-17 -5.44646094E-17 -3.33153103E-16  6.84568663E-17
  1.33968008E-17 -5.71459813E-17 -2.66650153E-16  4.16545920E-17  8.67888855E-18
 -9.02930591E-19  1.76637295E-17 -6.94005683E-18  1.93259046E-18  1.51890951E-31
 -3.50761515E-02  7.29581962E-02  3.51106759E-16  2.33339095E-01 -1.81170413E-01
  4.80397956E-02  6.53487237E-17  1.41982030E-01 -1.30652944E-01  1.15868739E-02
 -6.86603738E-17 -2.36555757E-02 -6.15487926E-03  1.50697617E-17  1.80190036E-01
  1.82313075E-02 -3.42780143E-02 -1.85005544E-15  1.14026342E-01 -8.49659240E-02
 -5.21332640E-02 -1.63165127E-15  6.93826789E-02 -6.26571674E-02  5.37037367E-03
  7.14523467E-17 -1.15598236E-02 -8.28742505E-04  1.57889487E-17  7.19054049E-02
  3.76345435E-02 -3.50761515E-02  7.29581962E-02 -9.60380610E-17 -2.33339095E-01
 -1.81170413E-01  4.80397956E-02 -2.19593143E-16 -1.41982030E-01 -1.30652944E-01
  1.15868739E-02  1.91033165E-16  2.36555757E-02 -6.15487926E-03 -4.71205231E-17
 -3.17890628E-02 -3.16828995E-02  1.80190036E-01  1.82313075E-02 -3.42780143E-02
 -1.08981716E-15 -1.14026342E-01 -8.49659240E-02 -5.21332640E-02 -9.87522943E-16
 -6.93826789E-02 -6.26571674E-02  5.37037367E-03  1.46464427E-16  1.15598236E-02
 -8.28742505E-04 -1.46017182E-17 -3.16828995E-02 -1.29861870E-02  7.19054049E-02
  3.76345435E-02
Total CC Density                           R   N=         171
  2.08429627E+00 -1.82114545E-01  5.20624499E-01 -1.06888139E-16 -2.50799269E-16
  8.10131028E-01  3.39750473E-16  9.74110402E-17  4.96924741E-16  5.38806665E-01
 -3.90636781E-02  9.13405386E-02 -6.89241387E-16  6.48263512E-16  6.39730253E-01
 -2.63629199E-01  5.35828041E-01  1.10746468E-15  1.34325094E-16  2.25565765E-01
  6.68626342E-01 -3.36449169E-16  3.62314833E-16  6.29803951E-01  2.66048286E-16
  3.78465528E-16  1.53174156E-15  5.45469967E-01 -1.23042933E-15  1.39531501E-15
  2.96235579E-16  2.92119009E-01  5.95191354E-16  1.66392954E-15  2.77170887E-16
  1.73576639E-01 -3.15193250E-02  8.23161532E-02 -1.25679490E-15  1.57774296E-16
  4.34763009E-01  1.96181358E-01 -7.09157627E-16  2.82436373E-16  3.29162943E-01
  2.29227308E-03 -5.85061678E-03 -1.28598172E-16  2.35127375E-16 -3.86796734E-02
 -1.51556150E-02 -1.51330096E-16  1.18557291E-16 -2.91255862E-02  7.20952010E-03
  6.45655651E-18 -6.03572994E-18 -4.21049861E-02 -2.85060745E-16 -1.96308354E-16
 -1.24525162E-16 -3.60078145E-02 -1.72305912E-16 -4.14654119E-17  2.33960757E-17
  7.13554883E-03  9.05312946E-17 -7.78908373E-17  5.78924161E-18 -4.65149306E-02
 -3.39809590E-16 -1.70934909E-16  1.10475826E-17 -2.59385952E-02 -2.17334897E-16
 -4.10542546E-18  2.55579868E-17  8.70724298E-03  6.56539768E-03 -1.31071123E-02
  2.98211512E-16  1.64299054E-16  7.01404764E-03 -1.22058019E-02  2.06554622E-16
  6.90821259E-17  3.62444305E-03 -5.48727793E-04 -2.94862185E-17 -1.58124549E-17
  5.07260646E-03  3.12290343E-17 -5.88137314E-17 -3.19929622E-16  8.84919018E-17
  3.99779715E-18 -3.63784480E-17 -2.77344364E-16  4.45667441E-17 -1.27796474E-17
 -8.50760947E-19  1.93688544E-17 -1.75422818E-17 -1.99715453E-18  4.95007075E-03
 -3.37955957E-02  7.00494973E-02  3.43019538E-16  2.25462969E-01 -1.75826269E-01
  3.76761511E-02  8.20286755E-17  1.32781803E-01 -1.26947289E-01  1.14949306E-02
 -4.72441379E-17 -2.21333900E-02 -6.24712528E-03 -1.93627558E-17  1.94483707E-01
  1.78179975E-02 -3.21769854E-02 -1.74080226E-15  1.16531951E-01 -8.82916557E-02
 -5.79664507E-02 -1.59734093E-15  6.98244371E-02 -6.91052848E-02  6.07703388E-03
  8.52884374E-17 -1.12236220E-02 -6.77667343E-04  1.50468856E-17  8.40155387E-02
  4.96727101E-02 -3.37955957E-02  7.00494973E-02 -1.27322013E-16 -2.25462969E-01
 -1.75826269E-01  3.76761511E-02 -3.11546349E-16 -1.32781803E-01 -1.26947289E-01
  1.14949306E-02  2.08607917E-16  2.21333900E-02 -6.24712528E-03 -5.39276294E-17
 -3.15183412E-02 -3.33974537E-02  1.94483707E-01  1.78179975E-02 -3.21769854E-02
 -9.99884375E-16 -1.16531951E-01 -8.82916557E-02 -5.79664507E-02 -8.95894750E-16
 -6.98244371E-02 -6.91052848E-02  6.07703388E-03  1.37884275E-16  1.12236220E-02
 -6.77667343E-04 -4.06269091E-17 -3.33974537E-02 -1.67036941E-02  8.40155387E-02
  4.96727101E-02
Mulliken Charges                           R   N=           3
 -8.45192552E-01  4.22596276E-01  4.22596276E-01
ONIOM Charges                              I   N=          16
           0           0           0           0           0           0
           0           0           0           0           0           0
           0           0           0           0
ONIOM Multiplicities                       I   N=          16
           1           0           0           0           0           0
           0           0           0           0           0           0
           0           0           0           0
Atom Layers                                I   N=           3
           1           1           1
Atom Modifiers                             I   N=           3
           0           0           0
Force Field                                I                0
Atom Modified Types                        C   N=           3
                                    
Int Atom Modified Types                    I   N=           3
           0           0           0
Link Atoms                                 I   N=           3
           0           0           0
Atom Modified MM Charges                   R   N=           3
  0.00000000E+00  0.00000000E+00  0.00000000E+00
Link Distances                             R   N=          12
  0.00000000E+00  0.00000000E+00  0.00000000E+00  0.00000000E+00  0.00000000E+00
  0.00000000E+00  0.00000000E+00  0.00000000E+00  0.00000000E+00  0.00000000E+00
  0.00000000E+00  0.00000000E+00
Cartesian Gradient                         R   N=           9
  0.00000000E+00  0.00000000E+00  0.00000000E+00  0.00000000E+00  0.00000000E+00
  0.00000000E+00  0.00000000E+00  0.00000000E+00  0.00000000E+00
Nonadiabatic coupling                      R   N=           9
  0.00000000E+00  0.00000000E+00  0.00000000E+00  0.00000000E+00  0.00000000E+00
  0.00000000E+00  0.00000000E+00  0.00000000E+00  0.00000000E+00
Dipole Moment                              R   N=           3
  1.06906757E-15 -6.33191165E-16 -8.56915946E-01
Quadrupole Moment                          R   N=           6
 -1.07103814E+00  1.19211831E+00 -1.21080170E-01 -3.79925016E-16  7.58324619E-17
  2.64582988E-15
QEq coupling tensors                       R   N=          18
  1.77333902E+00 -5.12212900E-16 -1.50944879E+00 -1.03478066E-15 -9.49213170E-16
 -2.63890230E-01  2.81894095E-01 -1.65168831E-16 -2.32277499E-01  7.02557686E-17
  3.43439845E-01 -4.96165960E-02  2.81894095E-01  2.51384990E-16 -2.32277499E-01
  2.34093449E-16 -3.43439845E-01 -4.96165960E-02
ClPar MaxAn                                I              200
ClPar NIntPar                              I                4
ClPar NRealPar                             I               16
ClPar NBits                                I               30
ClPar LenBitVec                            I                1
ClPar Read BitMap                          I   N=         200
           0           0           0           0           0           0
           0           0           0           0           0           0
           0           0           0           0           0           0