Calculo de punto sencillo de H2O a nivel de teoria B3LYP/6-31G(d), optim
SP        RB3LYP                                                      6-31G(d)            
Number of atoms                            I                3
Info1-9                                    I   N=           9
          12          12           0           0           0         110
           1          18        -502
Charge                                     I                0
Multiplicity                               I                1
Number of electrons                        I               10
Number of alpha electrons                  I                5
Number of beta electrons                   I                5
Number of basis functions                  I               18
Number of independent functions            I               18
Number of point charges in /Mol/           I                0
Number of translation vectors              I                0
Atomic numbers                             I   N=           3
           8           1           1
Nuclear charges                            R   N=           3
  8.00000000E+00  1.00000000E+00  1.00000000E+00
Current cartesian coordinates              R   N=           9
  0.00000000E+00  0.00000000E+00  2.24244352E-01  0.00000000E+00  1.43041686E+00
 -8.96979296E-01  0.00000000E+00 -1.43041686E+00 -8.96979296E-01
Force Field                                I                0
Int Atom Types                             I   N=           3
           0           0           0
MM charges                                 R   N=           3
  0.00000000E+00  0.00000000E+00  0.00000000E+00
Integer atomic weights                     I   N=           3
          16           1           1
Real atomic weights                        R   N=           3
  1.59949146E+01  1.00782504E+00  1.00782504E+00
Atom fragment info                         I   N=           3
           0           0           0
Atom residue num                           I   N=           3
           0           0           0
Nuclear spins                              I   N=           3
           0           1           1
Nuclear ZEff                               R   N=           3
 -5.60000000E+00 -1.00000000E+00 -1.00000000E+00
Nuclear ZNuc                               R   N=           3
  8.00000000E+00  1.00000000E+00  1.00000000E+00
Nuclear QMom                               R   N=           3
  0.00000000E+00  0.00000000E+00  0.00000000E+00
Nuclear GFac                               R   N=           3
  0.00000000E+00  2.79284600E+00  2.79284600E+00
MicOpt                                     I   N=           3
          -1          -1          -1
Number of contracted shells                I                8
Number of primitive shells                 I               19
Pure/Cartesian d shells                    I                0
Pure/Cartesian f shells                    I                0
Highest angular momentum                   I                2
Largest degree of contraction              I                6
Shell types                                I   N=           8
           0          -1          -1          -2           0           0
           0           0
Number of primitives per shell             I   N=           8
           6           3           1           1           3           1
           3           1
Shell to atom map                          I   N=           8
           1           1           1           1           2           2
           3           3
Primitive exponents                        R   N=          19
  5.48467166E+03  8.25234946E+02  1.88046958E+02  5.29645000E+01  1.68975704E+01
  5.79963534E+00  1.55396162E+01  3.59993359E+00  1.01376175E+00  2.70005823E-01
  8.00000000E-01  1.87311370E+01  2.82539436E+00  6.40121692E-01  1.61277759E-01
  1.87311370E+01  2.82539436E+00  6.40121692E-01  1.61277759E-01
Contraction coefficients                   R   N=          19
  1.83107443E-03  1.39501722E-02  6.84450781E-02  2.32714336E-01  4.70192898E-01
  3.58520853E-01 -1.10777550E-01 -1.48026263E-01  1.13076702E+00  1.00000000E+00
  1.00000000E+00  3.34946043E-02  2.34726953E-01  8.13757326E-01  1.00000000E+00
  3.34946043E-02  2.34726953E-01  8.13757326E-01  1.00000000E+00
P(S=P) Contraction coefficients            R   N=          19
  0.00000000E+00  0.00000000E+00  0.00000000E+00  0.00000000E+00  0.00000000E+00
  0.00000000E+00  7.08742682E-02  3.39752839E-01  7.27158577E-01  1.00000000E+00
  0.00000000E+00  0.00000000E+00  0.00000000E+00  0.00000000E+00  0.00000000E+00
  0.00000000E+00  0.00000000E+00  0.00000000E+00  0.00000000E+00
Coordinates of each shell                  R   N=          24
  0.00000000E+00  0.00000000E+00  2.24244352E-01  0.00000000E+00  0.00000000E+00
  2.24244352E-01  0.00000000E+00  0.00000000E+00  2.24244352E-01  0.00000000E+00
  0.00000000E+00  2.24244352E-01  0.00000000E+00  1.43041686E+00 -8.96979296E-01
  0.00000000E+00  1.43041686E+00 -8.96979296E-01  0.00000000E+00 -1.43041686E+00
 -8.96979296E-01  0.00000000E+00 -1.43041686E+00 -8.96979296E-01
Constraint Structure                       R   N=           9
  0.00000000E+00  0.00000000E+00  2.24244352E-01  0.00000000E+00  1.43041686E+00
 -8.96979296E-01  0.00000000E+00 -1.43041686E+00 -8.96979296E-01
Num ILSW                                   I              100
ILSW                                       I   N=         100
           0           0           0           0           2           0
           0           0           0           0         402          -1
           0           0           0           0           0           0
           0           0           1           0           0           0
           1           1           0           0           0           0
           0           0      100000           0          -1           0
           0           0           0           0           0           0
           0           0           0           1           0           0
           0           0           1           0           0           0
           0           0           4          41           0           0
           0           0           5           0           0           0
           0           0           0           0           0           0
           0           0           0           0           0           0
           0           0           0           0           0           0
           0           0           0           0           0           0
           0           0           0           0           0           0
           0           0           0           0
Num RLSW                                   I               41
RLSW                                       R   N=          41
  8.00000000E-01  7.20000000E-01  1.00000000E+00  8.10000000E-01  2.00000000E-01
  0.00000000E+00  0.00000000E+00  1.00000000E+00  0.00000000E+00  0.00000000E+00
  0.00000000E+00  0.00000000E+00  1.00000000E+00  0.00000000E+00  0.00000000E+00
  0.00000000E+00  0.00000000E+00  1.00000000E+00  0.00000000E+00  0.00000000E+00
  0.00000000E+00  0.00000000E+00  1.00000000E+00  0.00000000E+00  0.00000000E+00
  0.00000000E+00  0.00000000E+00  1.00000000E+00  0.00000000E+00  0.00000000E+00
  0.00000000E+00  0.00000000E+00  1.00000000E+00  0.00000000E+00  0.00000000E+00
  0.00000000E+00  0.00000000E+00  0.00000000E+00  1.00000000E+00  1.00000000E+00
  0.00000000E+00
MxBond                                     I                2
NBond                                      I   N=           3
           2           1           1
IBond                                      I   N=           6
           2           3           1           0           1           0
RBond                                      R   N=           6
  1.00000000E+00  1.00000000E+00  1.00000000E+00  0.00000000E+00  1.00000000E+00
  0.00000000E+00
Virial Ratio                               R      2.004860221602880E+00
SCF Energy                                 R     -7.640693537958711E+01
Total Energy                               R     -7.640693537958711E+01
RMS Density                                R      9.146361919919589E-09
Job Status                                 I                1
Nuclear derivative order                   I                0
External E-field                           R   N=          35
  0.00000000E+00  0.00000000E+00  0.00000000E+00  0.00000000E+00  0.00000000E+00
  0.00000000E+00  0.00000000E+00  0.00000000E+00  0.00000000E+00  0.00000000E+00
  0.00000000E+00  0.00000000E+00  0.00000000E+00  0.00000000E+00  0.00000000E+00
  0.00000000E+00  0.00000000E+00  0.00000000E+00  0.00000000E+00  0.00000000E+00
  0.00000000E+00  0.00000000E+00  0.00000000E+00  0.00000000E+00  0.00000000E+00
  0.00000000E+00  0.00000000E+00  0.00000000E+00  0.00000000E+00  0.00000000E+00
  0.00000000E+00  0.00000000E+00  0.00000000E+00  0.00000000E+00  0.00000000E+00
IOpCl                                      I                0
IROHF                                      I                0
Alpha Orbital Energies                     R   N=          18
 -1.91284449E+01 -9.99790466E-01 -5.19304120E-01 -3.71072983E-01 -2.90725434E-01
  6.71936946E-02  1.51312099E-01  7.76666199E-01  8.68219718E-01  8.91690049E-01
  9.34720166E-01  1.06855034E+00  1.38490453E+00  1.72936965E+00  1.74537616E+00
  1.77971939E+00  2.29647945E+00  2.59008685E+00
Alpha MO coefficients                      R   N=         324
  9.95045357E-01  2.79247143E-02  1.16069599E-16 -2.90692984E-16 -1.69629724E-03
 -1.32235307E-02  6.72465291E-18  2.69550275E-16  2.60786500E-03 -3.34515697E-05
 -1.59591780E-18 -3.38296729E-16  2.61636347E-04  5.33437265E-19  2.67227098E-04
  3.01788991E-03  2.67227098E-04  3.01788991E-03 -2.11575133E-01  4.64770300E-01
 -3.11667852E-16  5.97214779E-16 -1.28562570E-01  4.64836473E-01  6.58900586E-17
 -6.75420929E-16 -6.34101535E-02  8.13392773E-03  1.26385407E-16  3.89066415E-16
 -1.73044232E-02  3.47794110E-17  1.40656571E-01  8.66142755E-04  1.40656571E-01
  8.66142755E-04 -5.53655037E-16 -4.30271697E-15 -1.57535329E-16  5.18024439E-01
  1.65131131E-15  2.57944064E-14 -5.51420670E-17  2.68595484E-01 -8.76670708E-15
 -3.90324036E-17 -3.64948428E-17 -4.13978494E-02 -6.28761702E-16  9.81763326E-17
  2.38193108E-01  1.40470142E-01 -2.38193108E-01 -1.40470142E-01 -8.34640070E-02
  1.87603326E-01  1.34685232E-15 -3.09809872E-15  5.52260834E-01  3.47320397E-01
  1.70394755E-15 -7.19638206E-15  3.80578440E-01 -3.57148339E-02 -3.27784743E-16
  7.63993207E-16 -6.44130087E-04  3.70637173E-16 -1.42750352E-01 -9.90639077E-02
 -1.42750352E-01 -9.90639077E-02  3.50631464E-16 -7.65140688E-16  6.44062935E-01
 -1.08928570E-16  2.59635001E-16 -2.81847476E-15  5.06588463E-01 -8.41846219E-18
 -3.27815712E-16  8.43563245E-18 -3.58314189E-02 -5.43407689E-17 -1.59210024E-16
  2.37790503E-16  1.12806031E-15  2.09273836E-15  1.20416234E-15  1.36890111E-15
 -8.98340752E-02  1.52174089E-01  1.64124865E-15 -2.32739175E-13 -2.77029972E-01
  1.10764325E+00  1.38151627E-15 -5.41946788E-13 -4.58714132E-01  1.58009069E-02
 -8.32259291E-17  1.91199847E-14 -7.49728086E-03  2.01295764E-16 -9.46422800E-02
 -9.45134152E-01 -9.46422800E-02 -9.45134152E-01  6.27744389E-14 -1.59476605E-13
  7.49606017E-17 -4.11020253E-01  2.16923274E-13 -6.32073607E-13  1.49479135E-17
 -7.63118685E-01  2.53679376E-13 -9.71887171E-15  1.65304247E-17  1.89171643E-02
  7.65536834E-16  2.89127405E-16  1.04493615E-01  1.29318431E+00 -1.04493615E-01
 -1.29318431E+00 -1.06891843E-14  7.95818526E-14 -1.80077197E-15 -1.67128272E-01
 -1.37653070E-13 -6.96374433E-14  1.72865340E-15 -4.59485297E-01  7.74017993E-14
  9.57935541E-16 -4.44474703E-16 -1.96059775E-01  2.28725957E-14 -5.55725227E-17
  8.41074198E-01 -6.33348699E-01 -8.41074198E-01  6.33348699E-01  3.48792084E-02
 -1.60135652E-01 -1.44983477E-14  1.03595676E-13  7.13606745E-01  1.98525135E-01
  1.40730781E-14 -2.28831471E-13 -3.90617997E-01 -4.53289919E-03 -2.07815606E-15
 -3.53294236E-14 -1.59226676E-01  1.94175180E-16  7.10553441E-01 -5.59379355E-01
  7.10553441E-01 -5.59379355E-01 -1.93103481E-17  2.44276117E-16 -9.59778851E-01
 -2.12324246E-15 -1.52914481E-14 -4.27662678E-15  1.03835193E+00  4.84265306E-15
  1.42667218E-14 -8.95393842E-16 -1.64023713E-02  4.46108627E-16  1.04620053E-15
 -1.40982609E-16 -7.57179891E-15  6.93376634E-15 -4.41426916E-15  8.68203081E-15
  7.15948390E-02 -4.55391294E-01  7.80494336E-15  8.43934099E-15 -6.50512749E-01
  1.10208252E-01 -6.59000615E-15 -1.06158860E-14  1.11608836E+00 -3.16689300E-02
  1.21483875E-15  9.58646834E-16 -1.37809021E-01  1.22798780E-15  5.38825363E-01
 -1.16541155E-01  5.38825363E-01 -1.16541155E-01 -3.48661628E-15  1.05607187E-13
  2.85594386E-15 -9.91887367E-01  5.11375029E-14 -1.31643964E-13 -3.05442907E-15
  1.63119564E+00  5.28848101E-15 -2.10893249E-15  1.97352022E-16  1.06361156E-02
 -3.63993414E-14  2.19454425E-16  2.76052344E-02 -9.44097419E-01 -2.76052344E-02
  9.44097419E-01  6.35536337E-02 -1.59160015E+00 -9.10788993E-16 -6.93037423E-14
  2.05879970E-01  2.52460143E+00  8.66881946E-16  1.32245782E-13 -7.13966413E-01
  5.16594306E-02 -1.69676361E-15 -4.58295768E-15  2.62747317E-01  4.78094601E-15
 -2.26970367E-01 -6.45573536E-01 -2.26970367E-01 -6.45573536E-01 -8.91325591E-04
  1.30100824E-01 -6.88775064E-16  2.84110064E-15 -8.89497787E-03 -2.56260759E-01
  3.36221478E-16 -5.39943389E-15  1.50630226E-01  9.84797882E-01 -6.48599915E-15
  6.04450193E-16  1.31552513E-01  1.43655323E-13  8.57955362E-02  4.99299502E-02
  8.57955362E-02  4.99299502E-02 -3.90183906E-16 -9.79342942E-15 -9.16017278E-16
  5.59688333E-16  2.01640292E-15  2.42452316E-14 -1.63247661E-15 -2.42993859E-16
 -2.06886268E-14 -1.42852029E-13 -2.97868497E-14 -1.89413526E-16 -2.07389366E-14
  1.00000000E+00 -1.30541556E-14 -3.42504542E-15 -1.24959744E-14 -3.45908456E-15
  2.34401737E-16 -1.42733893E-16  7.34074173E-03  5.95230877E-16  2.78944751E-15
 -1.69846480E-15  3.52105678E-02 -1.22449677E-15 -5.71854913E-16  6.20714988E-15
  9.99223234E-01  3.34259528E-16  4.69037317E-15  3.11209527E-14  5.65180952E-15
 -2.51987183E-15  2.68230180E-15 -2.41698023E-16 -1.79284423E-02 -5.81058915E-01
 -2.95473219E-16 -3.48220697E-16  5.04000876E-02  1.37843945E+00  1.49192555E-16
 -1.72326163E-15 -7.37720153E-01  1.72601409E-01  3.72606764E-15  3.15341301E-15
 -1.07228804E+00 -2.74846334E-16 -8.36064969E-01 -1.27611769E-01 -8.36064969E-01
 -1.27611769E-01  1.29092472E-16  3.33110298E-15 -2.33868646E-16  2.94319510E-02
 -3.50082486E-16 -6.83251372E-15 -2.96997597E-16 -8.58053725E-01  2.83038890E-15
 -9.65730474E-16 -6.76955333E-16  1.28022822E+00  3.29184652E-15  2.25345714E-16
  9.37559466E-01 -4.40879980E-02 -9.37559466E-01  4.40879980E-02
Total SCF Density                          R   N=         171
  2.08369108E+00 -1.72411212E-01  5.03972458E-01  5.89701444E-16 -7.63475067E-16
  8.29634128E-01 -8.87671215E-16 -5.08135198E-15 -3.03528009E-16  5.36698638E-01
 -4.11623039E-02  8.76130733E-02  1.90181399E-15 -1.86365067E-15  6.43046482E-01
 -2.80989207E-01  5.61662771E-01 -2.98779055E-15  2.51351025E-14  2.64146624E-01
  6.73758533E-01  5.63164029E-17 -7.42673834E-17  6.52549704E-01 -1.67493790E-16
  2.12813837E-15 -1.61090375E-15  5.13263741E-01  1.72609333E-15 -5.62428806E-15
 -9.54705944E-17  2.78278049E-01 -6.88873718E-15  8.22257221E-15 -3.81512119E-17
  1.44287068E-01 -3.15072918E-02  8.39988979E-02  6.43029206E-16 -1.15181313E-14
  4.36652630E-01  2.05345635E-01  9.56514957E-16 -1.00999086E-14  2.97735194E-01
  2.45336094E-03 -5.84149544E-03 -9.04169900E-17  1.90591536E-16 -4.15391317E-02
 -1.72462033E-02 -1.12094179E-16  4.82061641E-16 -2.82163132E-02  2.68342251E-03
 -2.70668294E-17  4.92363727E-17 -4.61553776E-02 -3.00043104E-17 -4.13142983E-16
  9.18265458E-17 -3.63035668E-02 -1.90014090E-17 -2.42039967E-16  2.48651602E-17
  2.56778116E-03 -9.19566349E-16  9.85661141E-16 -5.69545026E-17 -4.28901954E-02
  6.08234525E-16 -1.23431358E-15 -5.04912872E-17 -2.22385508E-02  1.25625834E-15
 -4.49881565E-17  6.91582972E-18  3.42756387E-03  7.95057473E-03 -1.63122336E-02
 -1.95970446E-16 -6.68257724E-16  3.73705898E-03 -1.65418127E-02 -1.65779911E-16
 -3.04977707E-16  1.70563284E-03 -2.35513362E-04  7.45682592E-18  3.74323812E-17
  5.99852841E-04 -7.55250557E-17  1.71424200E-16  3.06304099E-16  1.01715479E-16
  4.00432318E-16  2.89779070E-16  2.40923851E-16  5.27394390E-17  2.77705080E-16
 -2.59087394E-17 -1.70407423E-17 -8.12857806E-18 -1.68087327E-18  4.09529443E-31
 -3.51580265E-02  7.72000359E-02  9.05894498E-16  2.46779703E-01 -1.93838104E-01
  3.15973231E-02  6.48716867E-16  1.27955186E-01 -1.26492128E-01  1.24847731E-02
  3.09101546E-17 -1.97213649E-02 -4.68392224E-03 -4.92631318E-17  1.93795925E-01
  2.21759075E-02 -3.61957749E-02  2.38476416E-15  1.45533933E-01 -1.09651178E-01
 -6.80884164E-02  1.76737791E-15  7.54592917E-02 -7.54972788E-02  7.08999039E-03
 -9.50718630E-17 -1.16303236E-02  9.92230648E-05 -4.57883789E-17  9.54461254E-02
  5.91107532E-02 -3.51580265E-02  7.72000359E-02  1.15401881E-15 -2.46779703E-01
 -1.93838104E-01  3.15973231E-02  7.78359531E-16 -1.27955186E-01 -1.26492128E-01
  1.24847731E-02  6.02277472E-17  1.97213649E-02 -4.68392224E-03 -1.42802835E-16
 -3.31479030E-02 -3.83899540E-02  1.93795925E-01  2.21759075E-02 -3.61957749E-02
  1.54088672E-15 -1.45533933E-01 -1.09651178E-01 -6.80884164E-02  1.06498597E-15
 -7.54592917E-02 -7.54972788E-02  7.08999039E-03 -2.26938889E-17  1.16303236E-02
  9.92230648E-05 -1.00951753E-16 -3.83899540E-02 -1.98166905E-02  9.54461254E-02
  5.91107532E-02
Mulliken Charges                           R   N=           3
 -7.95769796E-01  3.97884898E-01  3.97884898E-01
ONIOM Charges                              I   N=          16
           0           0           0           0           0           0
           0           0           0           0           0           0
           0           0           0           0
ONIOM Multiplicities                       I   N=          16
           1           0           0           0           0           0
           0           0           0           0           0           0
           0           0           0           0
Atom Layers                                I   N=           3
           1           1           1
Atom Modifiers                             I   N=           3
           0           0           0
Force Field                                I                0
Int Atom Modified Types                    I   N=           3
           0           0           0
Link Atoms                                 I   N=           3
           0           0           0
Atom Modified MM Charges                   R   N=           3
  0.00000000E+00  0.00000000E+00  0.00000000E+00
Link Distances                             R   N=          12
  0.00000000E+00  0.00000000E+00  0.00000000E+00  0.00000000E+00  0.00000000E+00
  0.00000000E+00  0.00000000E+00  0.00000000E+00  0.00000000E+00  0.00000000E+00
  0.00000000E+00  0.00000000E+00
Cartesian Gradient                         R   N=           9
  0.00000000E+00  0.00000000E+00  0.00000000E+00  0.00000000E+00  0.00000000E+00
  0.00000000E+00  0.00000000E+00  0.00000000E+00  0.00000000E+00
Dipole Moment                              R   N=           3
 -3.89204886E-16  4.67225000E-14 -8.20544609E-01
Quadrupole Moment                          R   N=           6
 -1.02773078E+00  1.14526980E+00 -1.17539020E-01 -5.87291710E-16 -6.30533269E-16
 -4.24885414E-14
QEq coupling tensors                       R   N=          18
  1.89797799E+00 -2.00371732E-16 -1.60032932E+00  2.00565431E-14 -3.28626015E-14
 -2.97648665E-01  2.71080735E-01  4.49809478E-16 -2.21915603E-01 -2.39657364E-16
  3.28825928E-01 -4.91651323E-02  2.71080735E-01 -3.17721952E-16 -2.21915603E-01
 -1.64308637E-16 -3.28825928E-01 -4.91651323E-02
