Calculo de punto sencillo de H2O^-1 a nivel de teoria UB3LYP/6-31G(d), o
SP        UB3LYP                                                      6-31G(d)            
Number of atoms                            I                3
Info1-9                                    I   N=           9
          12          12           0           0           0         110
           1          18        -502
Charge                                     I               -1
Multiplicity                               I                2
Number of electrons                        I               11
Number of alpha electrons                  I                6
Number of beta electrons                   I                5
Number of basis functions                  I               18
Number of independent functions            I               18
Number of point charges in /Mol/           I                0
Number of translation vectors              I                0
Atomic numbers                             I   N=           3
           8           1           1
Nuclear charges                            R   N=           3
  8.00000000E+00  1.00000000E+00  1.00000000E+00
Current cartesian coordinates              R   N=           9
  0.00000000E+00  0.00000000E+00  2.24244352E-01  0.00000000E+00  1.43041686E+00
 -8.96979296E-01  0.00000000E+00 -1.43041686E+00 -8.96979296E-01
Force Field                                I                0
Int Atom Types                             I   N=           3
           0           0           0
MM charges                                 R   N=           3
  0.00000000E+00  0.00000000E+00  0.00000000E+00
Integer atomic weights                     I   N=           3
          16           1           1
Real atomic weights                        R   N=           3
  1.59949146E+01  1.00782504E+00  1.00782504E+00
Atom fragment info                         I   N=           3
           0           0           0
Atom residue num                           I   N=           3
           0           0           0
Nuclear spins                              I   N=           3
           0           1           1
Nuclear ZEff                               R   N=           3
 -5.60000000E+00 -1.00000000E+00 -1.00000000E+00
Nuclear ZNuc                               R   N=           3
  8.00000000E+00  1.00000000E+00  1.00000000E+00
Nuclear QMom                               R   N=           3
  0.00000000E+00  0.00000000E+00  0.00000000E+00
Nuclear GFac                               R   N=           3
  0.00000000E+00  2.79284600E+00  2.79284600E+00
MicOpt                                     I   N=           3
          -1          -1          -1
Number of contracted shells                I                8
Number of primitive shells                 I               19
Pure/Cartesian d shells                    I                0
Pure/Cartesian f shells                    I                0
Highest angular momentum                   I                2
Largest degree of contraction              I                6
Shell types                                I   N=           8
           0          -1          -1          -2           0           0
           0           0
Number of primitives per shell             I   N=           8
           6           3           1           1           3           1
           3           1
Shell to atom map                          I   N=           8
           1           1           1           1           2           2
           3           3
Primitive exponents                        R   N=          19
  5.48467166E+03  8.25234946E+02  1.88046958E+02  5.29645000E+01  1.68975704E+01
  5.79963534E+00  1.55396162E+01  3.59993359E+00  1.01376175E+00  2.70005823E-01
  8.00000000E-01  1.87311370E+01  2.82539436E+00  6.40121692E-01  1.61277759E-01
  1.87311370E+01  2.82539436E+00  6.40121692E-01  1.61277759E-01
Contraction coefficients                   R   N=          19
  1.83107443E-03  1.39501722E-02  6.84450781E-02  2.32714336E-01  4.70192898E-01
  3.58520853E-01 -1.10777550E-01 -1.48026263E-01  1.13076702E+00  1.00000000E+00
  1.00000000E+00  3.34946043E-02  2.34726953E-01  8.13757326E-01  1.00000000E+00
  3.34946043E-02  2.34726953E-01  8.13757326E-01  1.00000000E+00
P(S=P) Contraction coefficients            R   N=          19
  0.00000000E+00  0.00000000E+00  0.00000000E+00  0.00000000E+00  0.00000000E+00
  0.00000000E+00  7.08742682E-02  3.39752839E-01  7.27158577E-01  1.00000000E+00
  0.00000000E+00  0.00000000E+00  0.00000000E+00  0.00000000E+00  0.00000000E+00
  0.00000000E+00  0.00000000E+00  0.00000000E+00  0.00000000E+00
Coordinates of each shell                  R   N=          24
  0.00000000E+00  0.00000000E+00  2.24244352E-01  0.00000000E+00  0.00000000E+00
  2.24244352E-01  0.00000000E+00  0.00000000E+00  2.24244352E-01  0.00000000E+00
  0.00000000E+00  2.24244352E-01  0.00000000E+00  1.43041686E+00 -8.96979296E-01
  0.00000000E+00  1.43041686E+00 -8.96979296E-01  0.00000000E+00 -1.43041686E+00
 -8.96979296E-01  0.00000000E+00 -1.43041686E+00 -8.96979296E-01
Constraint Structure                       R   N=           9
  0.00000000E+00  0.00000000E+00  2.24244352E-01  0.00000000E+00  1.43041686E+00
 -8.96979296E-01  0.00000000E+00 -1.43041686E+00 -8.96979296E-01
Num ILSW                                   I              100
ILSW                                       I   N=         100
           1           0           0           0           2           0
           0           0           0           0         402          -1
           0           0           0           0           0           0
           0           0           1           0           0           0
           1           1           0           0           0           0
           0           0      100000           0          -1           0
           0           0           0           0           0           0
           0           0           0           1           0           0
           0           0           1           0           0           0
           0           0           4          41           0           0
           0           0           5           0           0           0
           0           0           0           0           0           0
           0           0           0           0           0           0
           0           0           0           0           0           0
           0           0           0           0           0           0
           0           0           0           0           0           0
           0           0           0           0
Num RLSW                                   I               41
RLSW                                       R   N=          41
  8.00000000E-01  7.20000000E-01  1.00000000E+00  8.10000000E-01  2.00000000E-01
  0.00000000E+00  0.00000000E+00  1.00000000E+00  0.00000000E+00  0.00000000E+00
  0.00000000E+00  0.00000000E+00  1.00000000E+00  0.00000000E+00  0.00000000E+00
  0.00000000E+00  0.00000000E+00  1.00000000E+00  0.00000000E+00  0.00000000E+00
  0.00000000E+00  0.00000000E+00  1.00000000E+00  0.00000000E+00  0.00000000E+00
  0.00000000E+00  0.00000000E+00  1.00000000E+00  0.00000000E+00  0.00000000E+00
  0.00000000E+00  0.00000000E+00  1.00000000E+00  0.00000000E+00  0.00000000E+00
  0.00000000E+00  0.00000000E+00  0.00000000E+00  1.00000000E+00  1.00000000E+00
  0.00000000E+00
MxBond                                     I                2
NBond                                      I   N=           3
           2           1           1
IBond                                      I   N=           6
           2           3           1           0           1           0
RBond                                      R   N=           6
  1.00000000E+00  1.00000000E+00  1.00000000E+00  0.00000000E+00  1.00000000E+00
  0.00000000E+00
Virial Ratio                               R      1.995898214408085E+00
SCF Energy                                 R     -7.623641277547080E+01
Total Energy                               R     -7.623641277547080E+01
S**2                                       R      7.513365037198136E-01
S**2 after annihilation                    R      7.500007136612019E-01
RMS Density                                R      7.614768344206776E-10
Job Status                                 I                1
Nuclear derivative order                   I                0
External E-field                           R   N=          35
  0.00000000E+00  0.00000000E+00  0.00000000E+00  0.00000000E+00  0.00000000E+00
  0.00000000E+00  0.00000000E+00  0.00000000E+00  0.00000000E+00  0.00000000E+00
  0.00000000E+00  0.00000000E+00  0.00000000E+00  0.00000000E+00  0.00000000E+00
  0.00000000E+00  0.00000000E+00  0.00000000E+00  0.00000000E+00  0.00000000E+00
  0.00000000E+00  0.00000000E+00  0.00000000E+00  0.00000000E+00  0.00000000E+00
  0.00000000E+00  0.00000000E+00  0.00000000E+00  0.00000000E+00  0.00000000E+00
  0.00000000E+00  0.00000000E+00  0.00000000E+00  0.00000000E+00  0.00000000E+00
IOpCl                                      I                1
IROHF                                      I                0
Alpha Orbital Energies                     R   N=          18
 -1.87750656E+01 -6.61907675E-01 -1.82570393E-01 -5.53831752E-02  3.50890123E-02
  2.77024590E-01  4.11839917E-01  1.09487520E+00  1.18425364E+00  1.19753870E+00
  1.24048517E+00  1.37010214E+00  1.70090665E+00  2.05699727E+00  2.07461115E+00
  2.10494411E+00  2.62404525E+00  2.91531953E+00
Beta Orbital Energies                      R   N=          18
 -1.87672155E+01 -6.40188621E-01 -1.70219860E-01 -4.03200942E-02  4.37897891E-02
  3.77536759E-01  4.57147792E-01  1.10622276E+00  1.20730077E+00  1.20868004E+00
  1.25317373E+00  1.38290334E+00  1.71567721E+00  2.06508523E+00  2.07560101E+00
  2.11241680E+00  2.63183874E+00  2.92846992E+00
Alpha MO coefficients                      R   N=         324
  9.95019265E-01  2.80316847E-02  1.22365694E-16  2.38810915E-16 -1.24705065E-03
 -1.31907368E-02  5.31124664E-18  2.76008955E-16  2.41332310E-03 -5.17818839E-08
 -1.18759334E-19 -7.02871507E-17  2.67205964E-04 -4.61677814E-18  2.68764271E-04
  2.97337146E-03  2.68764271E-04  2.97337146E-03 -2.12983095E-01  4.69712877E-01
 -1.50531264E-17 -5.96411933E-17 -1.19740534E-01  4.59256556E-01  5.07178602E-17
  1.59035383E-15 -4.29684044E-02  5.91446729E-03 -3.29327214E-18 -2.11163796E-18
 -1.53911091E-02 -9.12868630E-18  1.33205316E-01  1.24232172E-02  1.33205316E-01
  1.24232172E-02  6.64527152E-16 -1.59551558E-15 -5.97563612E-17  5.02154879E-01
 -1.76474831E-15  8.27390713E-17 -5.82555889E-17  2.55370757E-01 -1.82195004E-15
 -2.33172458E-16 -2.61312009E-16 -3.30486439E-02  3.39049090E-16  2.72198673E-16
  2.21303210E-01  2.04139906E-01 -2.21303210E-01 -2.04139906E-01 -7.70605321E-02
  1.52055663E-01  9.13306211E-16  2.79297014E-15  5.46798714E-01  3.73685560E-01
  8.10204214E-16  4.01388330E-15  3.88492792E-01 -2.55920498E-02 -7.38514313E-17
 -2.52298650E-16  1.23395711E-04 -3.12846922E-17 -1.37457955E-01 -1.17866949E-01
 -1.37457955E-01 -1.17866949E-01  1.22597339E-16 -6.40224995E-16  6.26005538E-01
  8.03538042E-17 -3.84793526E-16  2.58523335E-16  5.26267793E-01 -6.74637391E-17
 -6.92201490E-16 -9.34518894E-17 -2.66599960E-02  3.80282359E-18  8.05651729E-17
  7.10077580E-17  1.18657000E-16 -3.61870010E-17  2.63427961E-17 -1.63694680E-16
 -8.90104185E-02  1.28451983E-01 -6.20410862E-17 -4.40520142E-15 -2.56669730E-01
  1.14831115E+00 -1.14864360E-16 -7.67640513E-15 -4.83850279E-01  1.42092378E-02
 -9.22714212E-17  2.49833782E-16 -1.01675777E-02 -7.88623033E-17 -7.05929384E-02
 -9.70991658E-01 -7.05929384E-02 -9.70991658E-01  2.15987234E-16  3.15355783E-15
  1.11818418E-16 -3.90798398E-01  5.05862643E-15 -1.50394250E-14 -4.56578892E-17
 -7.99318173E-01  7.14828370E-15  1.09461550E-16  1.82776567E-16  2.44175581E-02
  5.75438645E-16  2.26668300E-16  4.96392166E-02  1.34543909E+00 -4.96392166E-02
 -1.34543909E+00  1.39224875E-15 -9.34938313E-15 -1.74202105E-15 -1.30079704E-01
  1.33438822E-14  8.61138519E-15  1.12957668E-15 -5.60412930E-01 -4.81822909E-15
  5.00713845E-16 -2.97419121E-16 -1.94106948E-01 -2.84558961E-15 -4.52528263E-16
  8.50304277E-01 -5.25758698E-01 -8.50304277E-01  5.25758698E-01  1.01326365E-02
 -6.25861882E-04  6.54494620E-14  6.79630388E-17  8.92866253E-01  1.16680067E-01
 -7.06891814E-14  1.48203857E-14 -7.14041467E-01 -7.11638647E-05  1.15804646E-15
  4.67250670E-15 -1.11459385E-01  5.24513884E-16  5.00610434E-01 -4.59823936E-01
  5.00610434E-01 -4.59823936E-01 -1.95763590E-16  5.18268742E-15 -9.71622338E-01
 -3.21911419E-15  6.53427021E-14  6.74392118E-15  1.02891742E+00  5.83142310E-15
 -5.79339256E-14 -1.00770423E-16 -6.21641347E-03  3.83137087E-16 -5.87152733E-15
  1.30013377E-16  2.63952987E-14 -3.13640274E-14  2.84751413E-14 -2.74624738E-14
  8.36461212E-02 -5.46358119E-01 -9.30776253E-15  4.80970627E-15 -3.84436807E-01
  2.44432671E-01  1.07101031E-14 -1.35193600E-16  9.01549594E-01 -1.70583140E-02
 -1.26374052E-15  2.67610441E-15 -1.73705097E-01  1.59633111E-16  7.31907796E-01
 -3.00551441E-01  7.31907796E-01 -3.00551441E-01  6.97915065E-16 -1.43624023E-14
  3.77130327E-15 -1.01370102E+00 -2.46687548E-15  1.95430942E-14 -3.78026540E-15
  1.58569640E+00 -1.84221487E-16 -2.25054623E-15 -8.69242600E-16 -1.99190618E-03
 -1.27292495E-15 -4.15800465E-16  6.17882075E-02 -9.25415780E-01 -6.17882075E-02
  9.25415780E-01  6.24534661E-02 -1.57746815E+00  2.29653906E-16  6.12366039E-15
  2.21573778E-01  2.50271400E+00 -6.09045086E-16 -1.18811003E-14 -7.51111804E-01
  3.00408665E-02 -2.27571712E-16  2.21174505E-15  2.67554382E-01 -5.29753890E-16
 -2.50256607E-01 -6.23987474E-01 -2.50256607E-01 -6.23987474E-01  2.81795855E-05
  1.01902544E-01  4.17063583E-16 -1.96445838E-15 -6.35793242E-04 -2.07316505E-01
  1.78246799E-15  6.49340172E-15  1.16727398E-01  9.85640272E-01  5.78569350E-14
  1.58666991E-16  1.43647210E-01 -7.61890902E-14  7.94549917E-02  3.57190877E-02
  7.94549917E-02  3.57190877E-02 -1.45377453E-16  4.95907816E-15 -9.62291448E-16
 -5.19845266E-16 -5.66550213E-16 -8.59048367E-15 -1.78213628E-15  9.67186375E-16
  5.79796703E-15  7.64174534E-14 -5.31265123E-14 -7.91497817E-16  6.70844431E-15
  1.00000000E+00  2.07461943E-15 -1.70760836E-16  1.52925740E-15  4.10202023E-15
  1.33281005E-16 -7.10984680E-15  1.06532915E-02 -7.90317490E-16 -1.74919713E-15
  1.30774325E-14  2.04341314E-02  2.29731893E-15 -4.35334939E-15 -5.83820377E-14
  9.99625230E-01 -1.00424932E-15 -8.34000720E-15  5.44902848E-14 -2.89405912E-15
 -5.32453623E-15 -2.93389760E-15 -8.14623045E-16 -1.82557635E-02 -5.81016622E-01
 -5.24462940E-16  3.29389279E-15  4.86974258E-02  1.38036922E+00  1.29850775E-16
 -3.83979079E-15 -7.39499463E-01  1.77001783E-01  6.39004389E-16 -1.98377699E-15
 -1.07036796E+00 -5.05727295E-15 -8.39854816E-01 -1.25881294E-01 -8.39854816E-01
 -1.25881294E-01 -2.22571850E-16  2.19481112E-15 -1.42400220E-16  2.30697080E-02
 -8.68576713E-16 -3.14664303E-15 -4.05955097E-16 -8.54433350E-01  6.03919528E-16
 -4.79214566E-17  9.20561982E-16  1.28071800E+00 -1.92297863E-15  6.31480922E-16
  9.36251126E-01 -4.19017732E-02 -9.36251126E-01  4.19017732E-02
Beta MO coefficients                       R   N=         324
  9.95041968E-01  2.78979547E-02  1.22405482E-16  7.70724818E-16 -1.05492277E-03
 -1.31091164E-02  4.87459374E-18 -7.85194120E-16  2.34161730E-03 -6.13543333E-05
  2.05347524E-17 -1.93051889E-16  2.53925587E-04 -1.99617062E-17  2.74999602E-04
  2.94733036E-03  2.74999602E-04  2.94733036E-03 -2.13449874E-01  4.60841609E-01
  4.30667381E-17  1.22920095E-15 -9.43387621E-02  4.77951959E-01  8.70436090E-17
  1.25394860E-15 -4.09557481E-02  2.55193348E-03 -6.65314622E-17 -1.48221227E-16
 -1.71208821E-02  1.46750336E-17  1.32573315E-01  9.13679051E-03  1.32573315E-01
  9.13679051E-03  2.16458912E-16 -1.68180190E-15 -5.51064645E-17  5.13222128E-01
 -1.61787626E-15  6.33858731E-15 -5.40419983E-17  2.82884556E-01 -5.09390098E-15
  3.74963844E-17 -6.06345929E-17 -3.41676580E-02 -5.18592596E-16 -4.05861820E-16
  2.19673188E-01  1.59524495E-01 -2.19673188E-01 -1.59524495E-01 -7.24682266E-02
  1.54658943E-01 -5.31432005E-17  2.66237057E-15  5.42662502E-01  3.37809876E-01
 -3.96910359E-16  7.74763956E-15  3.99376715E-01 -2.43975255E-02  6.78628446E-17
 -4.01218829E-16  1.85791866E-03 -8.31544917E-18 -1.43757940E-01 -1.07337235E-01
 -1.43757940E-01 -1.07337235E-01 -6.54294843E-18 -1.17721237E-16  6.21594209E-01
 -4.58330344E-17 -5.23366776E-16  1.75802774E-16  5.31021788E-01  7.72043636E-17
  7.53202429E-16  2.02180764E-18 -2.35060859E-02  1.10705499E-17  4.69219210E-18
  5.37670726E-16 -1.66788065E-17 -8.06176555E-17 -7.86867936E-17  1.13205851E-17
 -9.07927467E-02  1.33813916E-01  7.95326375E-16 -5.90660356E-14 -2.39663311E-01
  1.15356133E+00  9.55110028E-18 -1.32249634E-13 -4.97807876E-01  1.07963625E-02
  1.26920248E-16  3.20595495E-15 -1.00473363E-02  1.39294244E-16 -6.12277386E-02
 -9.78666878E-01 -6.12277386E-02 -9.78666878E-01  1.46931316E-14 -2.70955076E-14
  1.20324828E-16 -3.82821055E-01  5.62255706E-14 -1.76044708E-13 -5.89870835E-17
 -7.84334457E-01  7.12567341E-14 -1.26985605E-15 -2.06796657E-16  1.54272056E-02
  1.34619210E-15 -1.81148226E-16  6.47030769E-02  1.33824319E+00 -6.47030769E-02
 -1.33824319E+00 -1.03831846E-15  6.81033326E-15 -1.68904936E-15 -1.20983017E-01
 -3.54565380E-14 -4.66286160E-15  1.24743892E-15 -5.53664525E-01  2.93659349E-14
 -1.70733176E-16 -7.09286148E-17 -1.98568605E-01  1.91613881E-15 -2.54515161E-16
  8.46076196E-01 -5.39890695E-01 -8.46076196E-01  5.39890695E-01 -5.00039803E-15
 -4.84039304E-14 -9.74504873E-01 -3.22859322E-15 -7.04647737E-13 -1.67727560E-14
  1.02636998E+00  5.86744363E-15  5.66416118E-13 -4.98058932E-15 -1.22248067E-02
  3.81031484E-16  8.25447021E-14 -8.79754369E-16 -3.52513598E-13  3.11606011E-13
 -3.50383525E-13  3.15496648E-13  2.02046526E-03  9.41632650E-02 -7.46861003E-13
  2.54126452E-14  9.33974164E-01  4.57953221E-03  7.87161965E-13 -4.62333570E-14
 -7.80507008E-01  8.67205563E-03 -1.05570235E-14 -6.37591727E-15 -9.83058645E-02
  5.74337474E-16  4.19207239E-01 -3.90697404E-01  4.19207239E-01 -3.90697404E-01
  8.35239564E-02 -5.25553404E-01 -4.00228076E-14 -3.70788511E-15 -2.81952126E-01
  2.30172021E-01  4.15405990E-14  1.04076829E-14  8.24372171E-01 -1.70746663E-02
 -1.02109517E-15  1.04611888E-15 -1.91068816E-01  8.50551394E-16  7.83407467E-01
 -3.43885701E-01  7.83407467E-01 -3.43885701E-01 -4.71492405E-16  2.43453987E-15
  3.80963281E-15 -1.01242982E+00  2.16352429E-14  6.76034134E-15 -3.77252427E-15
  1.59085955E+00 -2.53946975E-14  4.08764889E-16 -9.31957825E-16 -6.90667929E-03
 -1.23826745E-15  1.25809134E-16  6.17126259E-02 -9.36452379E-01 -6.17126259E-02
  9.36452379E-01  6.43652035E-02 -1.58043057E+00 -2.42677791E-15  1.85881140E-15
  2.45909819E-01  2.49779333E+00  2.60958426E-15 -1.21428234E-15 -7.53077104E-01
  3.93760219E-02  2.88380983E-15 -2.19838390E-15  2.68787365E-01  4.88086439E-16
 -2.28046755E-01 -6.37486906E-01 -2.28046755E-01 -6.37486906E-01 -1.36649086E-03
  1.21153979E-01  1.87434709E-15  1.32932095E-15 -1.27727156E-02 -2.33337162E-01
 -1.71263805E-15  6.27356081E-16  1.30651325E-01  9.84819729E-01  3.19502284E-15
  4.82218475E-16  1.44567133E-01 -9.04429167E-15  8.15831606E-02  4.30095670E-02
  8.15831606E-02  4.30095670E-02 -6.20290135E-17  2.93867081E-15 -2.30367216E-15
  5.90479576E-16 -7.67361263E-16 -5.31307821E-15  6.95485539E-17 -4.54205665E-16
  1.39018532E-15  8.89018145E-15 -6.83238353E-14 -7.09644565E-16  2.35376994E-15
  1.00000000E+00  2.71289207E-16  3.01150905E-15 -1.75798653E-16  1.09448148E-15
 -1.23888225E-16  4.66527249E-15  2.69906063E-03 -1.92148868E-15  3.55602430E-16
 -7.87154839E-15  2.50382082E-02  2.46599554E-15  1.93169925E-15 -3.41052990E-15
  9.99648947E-01 -9.40206906E-16 -1.52618130E-15  6.97243967E-14  1.98936428E-15
 -7.55046125E-16  2.53938454E-15  2.82945895E-15 -1.81646757E-02 -5.86023519E-01
 -3.20870191E-16 -1.24765684E-15  4.91384784E-02  1.39098567E+00 -9.41475822E-17
  2.71886648E-16 -7.43113424E-01  1.79989511E-01  3.30134366E-16 -1.99044016E-15
 -1.06823650E+00  9.64158749E-16 -8.43863224E-01 -1.28796799E-01 -8.43863224E-01
 -1.28796799E-01 -2.16005086E-16 -8.45401886E-16 -1.47448477E-16  1.80466287E-02
 -7.70649991E-17  3.47456654E-15 -4.06259863E-16 -8.54454861E-01 -1.64867411E-15
 -1.90991032E-16  9.33058117E-16  1.28012729E+00 -1.29713856E-15  6.27934737E-16
  9.39544732E-01 -4.10347475E-02 -9.39544732E-01  4.10347475E-02
Total SCF Density                          R   N=         171
  2.09020733E+00 -1.77114698E-01  4.98109472E-01  2.49241474E-16 -3.31652945E-16
  7.78262294E-01  1.18358562E-15 -8.27095771E-16 -3.64764277E-17  5.15556475E-01
 -1.52673342E-02  3.43184294E-02 -8.22668449E-17  2.27620545E-15  6.82591041E-01
 -3.81490373E-01  6.91812561E-01  5.33661463E-16  7.26031639E-16 -7.13991997E-03
  2.01207541E+00  1.83510533E-17 -2.88165467E-16  6.59526621E-01 -3.90395982E-17
 -2.37607478E-16  3.30950171E-16  5.58941929E-01 -1.06959649E-15  1.25003521E-15
 -2.50916839E-17  2.73418285E-01  7.15286156E-15 -1.54716458E-15 -2.46712144E-17
  1.45237895E-01  6.81298581E-03  1.97642318E-02  3.97936535E-16  7.05192623E-16
  5.62347141E-01 -3.14894057E-01  2.41782475E-16  6.34069976E-15  5.48074466E-01
  6.09919084E-04 -1.88708136E-03 -8.01896725E-17 -2.94135559E-16 -3.18292863E-02
  2.44828616E-03 -6.02685874E-17 -4.37106631E-16 -2.69200695E-02  1.49359176E-03
  4.10889192E-17 -2.43886281E-17 -3.13005520E-02 -1.63402992E-16  4.93382519E-17
 -1.55232368E-16 -2.65125410E-02 -8.39002247E-17  4.67210425E-17  1.17659796E-18
  1.26329146E-03 -2.33021795E-16 -3.47854078E-17  1.31197039E-17 -3.41311359E-02
 -2.91679017E-16 -2.30592755E-16  1.16517635E-17 -1.81051600E-02 -1.39336600E-16
  2.58415121E-17  1.03461410E-17  2.25964172E-03  8.21190924E-03 -1.61047815E-02
  5.35537762E-17 -6.56842464E-17  7.14290620E-03 -2.62600887E-02  4.31527423E-17
 -1.32500325E-17  7.07330250E-03 -3.27697254E-04 -8.06771648E-21  5.69958953E-18
  6.36993447E-04 -1.56116594E-17 -1.43843947E-17  3.78664260E-16 -7.16113747E-17
 -1.64188108E-18 -1.01914010E-16  3.22883966E-16 -4.53004592E-17  2.24160069E-17
 -1.32374070E-19 -1.45316008E-17  4.87155081E-18  6.65477442E-19  5.40933461E-31
 -2.88332031E-02  7.14762435E-02 -7.11680895E-17  2.23869628E-01 -1.63512310E-01
 -5.64596231E-02  9.21751373E-19  1.18656521E-01 -8.78105524E-02  7.14823689E-03
 -7.62643305E-17 -1.48194894E-02 -3.88610111E-03 -1.71328582E-17  1.77095306E-01
  1.04584900E-01 -1.49037273E-01 -1.34526124E-16  1.84381350E-01  1.24170445E-01
 -1.18531077E+00 -2.22722626E-17  9.72583780E-02  3.80262199E-01 -8.06521942E-03
  3.02694249E-17 -1.21971254E-02  9.31257093E-03  7.19244508E-17  1.83265298E-01
  1.03561521E+00 -2.88332031E-02  7.14762435E-02 -1.16841724E-16 -2.23869628E-01
 -1.63512310E-01 -5.64596231E-02 -3.10603795E-17 -1.18656521E-01 -8.78105524E-02
  7.14823689E-03  6.99522924E-17  1.48194894E-02 -3.88610111E-03  4.07041810E-17
 -1.73675347E-02  2.28251559E-02  1.77095306E-01  1.04584900E-01 -1.49037273E-01
 -1.15219381E-16 -1.84381350E-01  1.24170445E-01 -1.18531077E+00  4.72387046E-19
 -9.72583780E-02  3.80262199E-01 -8.06521942E-03  1.57541494E-16  1.21971254E-02
  9.31257093E-03  9.02810314E-17  2.28251559E-02  9.01372880E-01  1.83265298E-01
  1.03561521E+00
Spin SCF Density                           R   N=         171
  8.36530556E-03 -1.34850842E-02  2.39641259E-02  2.44612012E-17 -2.15388739E-16
  5.50357200E-03  3.38215654E-16 -1.10027589E-15  7.70663838E-17 -1.12374300E-02
  2.52104351E-02 -4.65274748E-02  6.34438296E-16  1.28087660E-15  7.58240282E-02
 -1.02403595E-01  1.47533060E-01  3.13051678E-16 -8.73371599E-15 -2.83622292E-01
  1.32662454E+00 -4.76878587E-18 -1.20867526E-16 -6.33515559E-04  6.51081802E-17
  7.65441038E-16  3.29322919E-16 -5.02634899E-03  2.02876569E-15 -1.30686948E-15
 -8.98937191E-17 -1.69469420E-02 -1.05565687E-16 -1.15870406E-14 -7.60903194E-17
 -1.48094483E-02  4.25532168E-02 -6.61525565E-02 -4.93033280E-16  3.90429660E-15
  1.21171118E-01 -5.45509701E-01 -2.34010772E-16  3.14060797E-15  2.25705232E-01
 -1.71465170E-03  3.31085873E-03 -8.55010722E-17 -2.08892103E-16 -4.86867877E-03
  1.64907245E-02 -8.22267573E-17 -8.67707957E-17 -7.22314227E-03  2.90080993E-04
 -1.86510245E-17  9.26102621E-18 -2.07805827E-03 -1.03319673E-16 -6.14292653E-17
 -1.28680906E-16 -1.54805352E-03 -4.59655002E-17  2.23791839E-17  4.92510602E-18
  1.58219314E-04  4.45326182E-17  1.21776811E-16 -4.40879320E-18  9.40060350E-04
  4.84240119E-18  6.10251750E-16 -3.79861991E-18  1.22584553E-03 -1.78191932E-16
  9.55915835E-18  6.72310752E-18 -7.52159880E-05  6.66955875E-04 -9.13607317E-04
  4.93304861E-17  4.98427804E-16  1.89667071E-03 -1.11427595E-02  4.26223353E-17
  2.94700845E-16  4.18569733E-03 -1.49626155E-04 -2.32822811E-18 -3.32250502E-17
  4.37115587E-05  2.91733680E-17 -2.42242282E-17 -2.89761760E-16  3.44983159E-16
  1.01098167E-17 -1.10847211E-16 -2.48145774E-16  1.84323622E-16  3.03535398E-17
 -6.15475730E-19  1.07454677E-17 -2.28631449E-17  1.20901291E-18 -3.68059738E-31
  6.37927357E-03 -6.26279789E-03 -5.29882024E-17 -1.61265427E-03  1.75259626E-02
 -8.60540603E-02 -9.48215052E-17 -5.62778389E-03  3.78745861E-02 -5.43041973E-04
 -1.32679043E-17  1.91947369E-04  1.18748455E-03  1.54910181E-16  4.09847728E-03
  8.70628806E-02 -1.24421622E-01 -2.96385368E-17  2.06383489E-02  2.42396356E-01
 -1.12144823E+00 -6.23660793E-18  7.00434637E-03  4.66732789E-01 -1.33490166E-02
  6.14879623E-17 -1.29596867E-03  1.00227817E-02  1.99478642E-16  7.98934190E-02
  9.61492183E-01  6.37927357E-03 -6.26279789E-03 -6.99958762E-17  1.61265427E-03
  1.75259626E-02 -8.60540603E-02 -1.08434764E-16  5.62778389E-03  3.78745861E-02
 -5.43041973E-04  7.67544112E-17 -1.91947369E-04  1.18748455E-03 -1.43880619E-16
  2.66087471E-03  5.96262949E-02  4.09847728E-03  8.70628806E-02 -1.24421622E-01
 -1.59791674E-16 -2.06383489E-02  2.42396356E-01 -1.12144823E+00 -1.15618466E-16
 -7.00434637E-03  4.66732789E-01 -1.33490166E-02  1.54391437E-16  1.29596867E-03
  1.00227817E-02 -4.11443847E-17  5.96262949E-02  9.29042110E-01  7.98934190E-02
  9.61492183E-01
Mulliken Charges                           R   N=           3
 -6.61126582E-01 -1.69436709E-01 -1.69436709E-01
ONIOM Charges                              I   N=          16
          -1           0           0           0           0           0
           0           0           0           0           0           0
           0           0           0           0
ONIOM Multiplicities                       I   N=          16
           2           0           0           0           0           0
           0           0           0           0           0           0
           0           0           0           0
Atom Layers                                I   N=           3
           1           1           1
Atom Modifiers                             I   N=           3
           0           0           0
Force Field                                I                0
Int Atom Modified Types                    I   N=           3
           0           0           0
Link Atoms                                 I   N=           3
           0           0           0
Atom Modified MM Charges                   R   N=           3
  0.00000000E+00  0.00000000E+00  0.00000000E+00
Link Distances                             R   N=          12
  0.00000000E+00  0.00000000E+00  0.00000000E+00  0.00000000E+00  0.00000000E+00
  0.00000000E+00  0.00000000E+00  0.00000000E+00  0.00000000E+00  0.00000000E+00
  0.00000000E+00  0.00000000E+00
Cartesian Gradient                         R   N=           9
  0.00000000E+00  0.00000000E+00  0.00000000E+00  0.00000000E+00  0.00000000E+00
  0.00000000E+00  0.00000000E+00  0.00000000E+00  0.00000000E+00
Dipole Moment                              R   N=           3
 -5.31901462E-16  3.11974838E-14  2.72618770E-01
Quadrupole Moment                          R   N=           6
  5.91307547E-01 -3.64099666E-01 -2.27207881E-01  2.33151826E-17 -6.25913158E-16
 -4.64083287E-14
Anisotropic Hyperfine tensors              R   N=          18
 -2.09342627E-01  0.00000000E+00 -3.89828938E-01  0.00000000E+00  1.45647383E-14
  5.99171565E-01 -5.34121545E-02  0.00000000E+00  7.70118584E-02  0.00000000E+00
 -4.91185296E-02 -2.35997039E-02 -5.34121545E-02  0.00000000E+00  7.70118584E-02
  0.00000000E+00  4.91185296E-02 -2.35997039E-02
Isotropic Hyperfine splittings             R   N=           3
  1.01208267E+00  6.28537993E-03  6.28537993E-03
QEq coupling tensors                       R   N=          18
  1.48869353E+00  0.00000000E+00 -1.75815208E+00  0.00000000E+00  2.46191956E-14
  2.69458553E-01  2.44336837E-01  0.00000000E+00 -1.86493622E-01  0.00000000E+00
  3.12675346E-01 -5.78432144E-02  2.44336837E-01  0.00000000E+00 -1.86493622E-01
  0.00000000E+00 -3.12675346E-01 -5.78432144E-02
