 Entering Gaussian System, Link 0=/opt/g09E01ES64L/g09/g09
 Initial command:
 /opt/g09E01ES64L/g09/l1.exe "/home/scratch/Gau-8320.inp" -scrdir="/home/scratch/"
 Entering Link 1 = /opt/g09E01ES64L/g09/l1.exe PID=      8321.
  
 Copyright (c) 1988,1990,1992,1993,1995,1998,2003,2009,2015,
            Gaussian, Inc.  All Rights Reserved.
  
 This is part of the Gaussian(R) 09 program.  It is based on
 the Gaussian(R) 03 system (copyright 2003, Gaussian, Inc.),
 the Gaussian(R) 98 system (copyright 1998, Gaussian, Inc.),
 the Gaussian(R) 94 system (copyright 1995, Gaussian, Inc.),
 the Gaussian 92(TM) system (copyright 1992, Gaussian, Inc.),
 the Gaussian 90(TM) system (copyright 1990, Gaussian, Inc.),
 the Gaussian 88(TM) system (copyright 1988, Gaussian, Inc.),
 the Gaussian 86(TM) system (copyright 1986, Carnegie Mellon
 University), and the Gaussian 82(TM) system (copyright 1983,
 Carnegie Mellon University). Gaussian is a federally registered
 trademark of Gaussian, Inc.
  
 This software contains proprietary and confidential information,
 including trade secrets, belonging to Gaussian, Inc.
  
 This software is provided under written license and may be
 used, copied, transmitted, or stored only in accord with that
 written license.
  
 The following legend is applicable only to US Government
 contracts under FAR:
  
                    RESTRICTED RIGHTS LEGEND
  
 Use, reproduction and disclosure by the US Government is
 subject to restrictions as set forth in subparagraphs (a)
 and (c) of the Commercial Computer Software - Restricted
 Rights clause in FAR 52.227-19.
  
 Gaussian, Inc.
 340 Quinnipiac St., Bldg. 40, Wallingford CT 06492
  
  
 ---------------------------------------------------------------
 Warning -- This program may not be used in any manner that
 competes with the business of Gaussian, Inc. or will provide
 assistance to any competitor of Gaussian, Inc.  The licensee
 of this program is prohibited from giving any competitor of
 Gaussian, Inc. access to this program.  By using this program,
 the user acknowledges that Gaussian, Inc. is engaged in the
 business of creating and licensing software in the field of
 computational chemistry and represents and warrants to the
 licensee that it is not a competitor of Gaussian, Inc. and that
 it will not use this program in any manner prohibited above.
 ---------------------------------------------------------------
  

 Cite this work as:
 Gaussian 09, Revision E.01,
 M. J. Frisch, G. W. Trucks, H. B. Schlegel, G. E. Scuseria, 
 M. A. Robb, J. R. Cheeseman, G. Scalmani, V. Barone, B. Mennucci, 
 G. A. Petersson, H. Nakatsuji, M. Caricato, X. Li, H. P. Hratchian, 
 A. F. Izmaylov, J. Bloino, G. Zheng, J. L. Sonnenberg, M. Hada, 
 M. Ehara, K. Toyota, R. Fukuda, J. Hasegawa, M. Ishida, T. Nakajima, 
 Y. Honda, O. Kitao, H. Nakai, T. Vreven, J. A. Montgomery, Jr., 
 J. E. Peralta, F. Ogliaro, M. Bearpark, J. J. Heyd, E. Brothers, 
 K. N. Kudin, V. N. Staroverov, T. Keith, R. Kobayashi, J. Normand, 
 K. Raghavachari, A. Rendell, J. C. Burant, S. S. Iyengar, J. Tomasi, 
 M. Cossi, N. Rega, J. M. Millam, M. Klene, J. E. Knox, J. B. Cross, 
 V. Bakken, C. Adamo, J. Jaramillo, R. Gomperts, R. E. Stratmann, 
 O. Yazyev, A. J. Austin, R. Cammi, C. Pomelli, J. W. Ochterski, 
 R. L. Martin, K. Morokuma, V. G. Zakrzewski, G. A. Voth, 
 P. Salvador, J. J. Dannenberg, S. Dapprich, A. D. Daniels, 
 O. Farkas, J. B. Foresman, J. V. Ortiz, J. Cioslowski, 
 and D. J. Fox, Gaussian, Inc., Wallingford CT, 2013.
 
 ******************************************
 Gaussian 09:  ES64L-G09RevE.01 30-Nov-2015
                 3-Feb-2021 
 ******************************************
 %chk=H2Onodiff_N+2.chk
 %mem=20GB
 %nprocshared=18
 Will use up to   18 processors via shared memory.
 --------------------------
 # b3lyp/6-31g(d) NoSymm 5D
 --------------------------
 1/38=1/1;
 2/12=2,15=1,17=6,18=5,40=1/2;
 3/5=1,6=6,7=1,8=1,11=2,16=1,25=1,30=1,74=-5/1,2,3;
 4//1;
 5/5=2,38=5/2;
 6/7=2,8=2,9=2,10=2,28=1/1;
 99/5=1,9=1/99;
 ----------------------------------------------------------------------
 Calculo de punto sencillo de H2O^-2 a nivel de teoriaUB3LYP/6-31G(d), 
 optimizada geometricamente a nivel de teoria B3LYP/6-311G(d,p)
 ----------------------------------------------------------------------
 Symbolic Z-matrix:
 Charge = -2 Multiplicity = 1
 O                     0.        0.        0.11867 
 H                     0.        0.75694  -0.47466 
 H                     0.       -0.75694  -0.47466 
 
                          Input orientation:                          
 ---------------------------------------------------------------------
 Center     Atomic      Atomic             Coordinates (Angstroms)
 Number     Number       Type             X           Y           Z
 ---------------------------------------------------------------------
      1          8           0        0.000000    0.000000    0.118665
      2          1           0        0.000000    0.756944   -0.474661
      3          1           0        0.000000   -0.756944   -0.474661
 ---------------------------------------------------------------------
                    Distance matrix (angstroms):
                    1          2          3
     1  O    0.000000
     2  H    0.961769   0.000000
     3  H    0.961769   1.513888   0.000000
 Symmetry turned off by external request.
 Stoichiometry    H2O(2-)
 Framework group  C2V[C2(O),SGV(H2)]
 Deg. of freedom     2
 Full point group                 C2V     NOp   4
 Rotational constants (GHZ):    801.9747612    437.5972212    283.1154075
 Standard basis: 6-31G(d) (5D, 7F)
    18 basis functions,    36 primitive gaussians,    19 cartesian basis functions
     6 alpha electrons        6 beta electrons
       nuclear repulsion energy         9.1529448261 Hartrees.
 NAtoms=    3 NActive=    3 NUniq=    3 SFac= 1.00D+00 NAtFMM=   60 NAOKFM=F Big=F
 Integral buffers will be    131072 words long.
 Raffenetti 2 integral format.
 Two-electron integral symmetry is turned off.
 One-electron integrals computed using PRISM.
 NBasis=    18 RedAO= T EigKep=  6.30D-02  NBF=    18
 NBsUse=    18 1.00D-06 EigRej= -1.00D+00 NBFU=    18
 ExpMin= 1.61D-01 ExpMax= 5.48D+03 ExpMxC= 8.25D+02 IAcc=1 IRadAn=         1 AccDes= 0.00D+00
 Harris functional with IExCor=  402 and IRadAn=       1 diagonalized for initial guess.
 HarFok:  IExCor=  402 AccDes= 0.00D+00 IRadAn=         1 IDoV= 1 UseB2=F ITyADJ=14
 ICtDFT=  3500011 ScaDFX=  1.000000  1.000000  1.000000  1.000000
 FoFCou: FMM=F IPFlag=           0 FMFlag=      100000 FMFlg1=           0
         NFxFlg=           0 DoJE=T BraDBF=F KetDBF=T FulRan=T
         wScrn=  0.000000 ICntrl=     500 IOpCl=  0 I1Cent=   200000004 NGrid=           0
         NMat0=    1 NMatS0=      1 NMatT0=    0 NMatD0=    1 NMtDS0=    0 NMtDT0=    0
 Symmetry not used in FoFCou.
 Keep R1 ints in memory in canonical form, NReq=894307.
 Requested convergence on RMS density matrix=1.00D-08 within 128 cycles.
 Requested convergence on MAX density matrix=1.00D-06.
 Requested convergence on             energy=1.00D-06.
 No special actions if energy rises.
 Integral accuracy reduced to 1.0D-05 until final iterations.
 Initial convergence to 1.0D-05 achieved.  Increase integral accuracy.
 SCF Done:  E(RB3LYP) =  -75.7547502390     A.U. after   12 cycles
            NFock= 12  Conv=0.12D-08     -V/T= 1.9836

 **********************************************************************

            Population analysis using the SCF density.

 **********************************************************************

 Alpha  occ. eigenvalues --  -18.42886  -0.31445   0.15663   0.26913   0.36042
 Alpha  occ. eigenvalues --    0.58737
 Alpha virt. eigenvalues --    0.71714   1.41966   1.50311   1.50764   1.57004
 Alpha virt. eigenvalues --    1.68203   2.02656   2.38576   2.39763   2.43072
 Alpha virt. eigenvalues --    2.95283   3.24668
          Condensed to atoms (all electrons):
               1          2          3
     1  O   12.220838  -1.836838  -1.836838
     2  H   -1.836838   2.554846   1.008412
     3  H   -1.836838   1.008412   2.554846
 Mulliken charges:
               1
     1  O   -0.547161
     2  H   -0.726420
     3  H   -0.726420
 Sum of Mulliken charges =  -2.00000
 Mulliken charges with hydrogens summed into heavy atoms:
               1
     1  O   -2.000000
 Electronic spatial extent (au):  <R**2>=             41.2729
 Charge=             -2.0000 electrons
 Dipole moment (field-independent basis, Debye):
    X=             -0.0000    Y=             -0.0000    Z=              3.4313  Tot=              3.4313
 Quadrupole moment (field-independent basis, Debye-Ang):
   XX=            -12.7218   YY=            -18.3431   ZZ=            -16.2389
   XY=              0.0000   XZ=             -0.0000   YZ=              0.0000
 Traceless Quadrupole moment (field-independent basis, Debye-Ang):
   XX=              3.0461   YY=             -2.5752   ZZ=             -0.4710
   XY=              0.0000   XZ=             -0.0000   YZ=              0.0000
 Octapole moment (field-independent basis, Debye-Ang**2):
  XXX=             -0.0000  YYY=             -0.0000  ZZZ=             10.5315  XYY=             -0.0000
  XXY=             -0.0000  XXZ=              2.7115  XZZ=             -0.0000  YZZ=             -0.0000
  YYZ=              6.3967  XYZ=             -0.0000
 Hexadecapole moment (field-independent basis, Debye-Ang**3):
 XXXX=            -14.0568 YYYY=            -45.4430 ZZZZ=            -30.0520 XXXY=              0.0000
 XXXZ=             -0.0000 YYYX=              0.0000 YYYZ=              0.0000 ZZZX=             -0.0000
 ZZZY=              0.0000 XXYY=             -9.0728 XXZZ=             -7.1410 YYZZ=            -13.3847
 XXYZ=              0.0000 YYXZ=             -0.0000 ZZXY=              0.0000
 N-N= 9.152944826069D+00 E-N=-2.063454623701D+02  KE= 7.701491157774D+01
 1\1\GINC-LOCALHOST\SP\RB3LYP\6-31G(d)\H2O1(2-)\ROOT\03-Feb-2021\0\\# b
 3lyp/6-31g(d) NoSymm 5D\\Calculo de punto sencillo de H2O^-2 a nivel d
 e teoriaUB3LYP/6-31G(d), optimizada geometricamente a nivel de teoria 
 B3LYP/6-311G(d,p)\\-2,1\O,0,0.,0.,0.118665\H,0,0.,0.756944,-0.474661\H
 ,0,0.,-0.756944,-0.474661\\Version=ES64L-G09RevE.01\HF=-75.7547502\RMS
 D=1.185e-09\Dipole=0.,0.,1.349982\Quadrupole=2.2647277,-1.914566,-0.35
 01617,0.,0.,0.\PG=C02V [C2(O1),SGV(H2)]\\@


 The most important thing in communication is to hear what isn't being said.
 -- Peter F. Drucker
 Job cpu time:       0 days  0 hours  0 minutes 16.4 seconds.
 File lengths (MBytes):  RWF=      5 Int=      0 D2E=      0 Chk=      1 Scr=      1
 Normal termination of Gaussian 09 at Wed Feb  3 13:35:14 2021.
