Calculo de punto sencillo de H2O a nivel de teoria MP2/6-31G(d), optimiz
SP        RMP2-FC                                                     6-31G(d)            
Number of atoms                            I                3
Info1-9                                    I   N=           9
          12          12           0           0           0         110
           1           2           1
Full Title                                 C   N=          11
Calculo de punto sencillo de H2O a nivel de teoria MP2/6-31G
(d), optimizada geometricamente a nivel de teoria B3LYP/6-31
1G(d,p)     
Route                                      C   N=           4
# MP2/6-31g(d) NoSymm 5D Density=Current        
Charge                                     I                0
Multiplicity                               I                1
Number of electrons                        I               10
Number of alpha electrons                  I                5
Number of beta electrons                   I                5
Number of basis functions                  I               18
Number of independent functions            I               18
Number of point charges in /Mol/           I                0
Number of translation vectors              I                0
Atomic numbers                             I   N=           3
           8           1           1
Nuclear charges                            R   N=           3
  8.00000000E+00  1.00000000E+00  1.00000000E+00
Current cartesian coordinates              R   N=           9
  0.00000000E+00  0.00000000E+00  2.24244351E-01  0.00000000E+00  1.43041685E+00
 -8.96979292E-01  0.00000000E+00 -1.43041685E+00 -8.96979292E-01
Number of symbols in /Mol/                 I                0
Force Field                                I                0
Atom Types                                 C   N=           3
                                    
Int Atom Types                             I   N=           3
           0           0           0
MM charges                                 R   N=           3
  0.00000000E+00  0.00000000E+00  0.00000000E+00
Integer atomic weights                     I   N=           3
          16           1           1
Real atomic weights                        R   N=           3
  1.59949146E+01  1.00782504E+00  1.00782504E+00
Atom fragment info                         I   N=           3
           0           0           0
Atom residue num                           I   N=           3
           0           0           0
Nuclear spins                              I   N=           3
           0           1           1
Nuclear ZEff                               R   N=           3
 -5.60000000E+00 -1.00000000E+00 -1.00000000E+00
Nuclear ZNuc                               R   N=           3
  8.00000000E+00  1.00000000E+00  1.00000000E+00
Nuclear QMom                               R   N=           3
  0.00000000E+00  0.00000000E+00  0.00000000E+00
Nuclear GFac                               R   N=           3
  0.00000000E+00  2.79284600E+00  2.79284600E+00
MicOpt                                     I   N=           3
          -1          -1          -1
Number of residues                         I                0
Number of secondary structures             I                0
Number of contracted shells                I                8
Number of primitive shells                 I               19
Pure/Cartesian d shells                    I                0
Pure/Cartesian f shells                    I                0
Highest angular momentum                   I                2
Largest degree of contraction              I                6
Shell types                                I   N=           8
           0          -1          -1          -2           0           0
           0           0
Number of primitives per shell             I   N=           8
           6           3           1           1           3           1
           3           1
Shell to atom map                          I   N=           8
           1           1           1           1           2           2
           3           3
Primitive exponents                        R   N=          19
  5.48467166E+03  8.25234946E+02  1.88046958E+02  5.29645000E+01  1.68975704E+01
  5.79963534E+00  1.55396162E+01  3.59993359E+00  1.01376175E+00  2.70005823E-01
  8.00000000E-01  1.87311370E+01  2.82539436E+00  6.40121692E-01  1.61277759E-01
  1.87311370E+01  2.82539436E+00  6.40121692E-01  1.61277759E-01
Contraction coefficients                   R   N=          19
  1.83107443E-03  1.39501722E-02  6.84450781E-02  2.32714336E-01  4.70192898E-01
  3.58520853E-01 -1.10777550E-01 -1.48026263E-01  1.13076702E+00  1.00000000E+00
  1.00000000E+00  3.34946043E-02  2.34726953E-01  8.13757326E-01  1.00000000E+00
  3.34946043E-02  2.34726953E-01  8.13757326E-01  1.00000000E+00
P(S=P) Contraction coefficients            R   N=          19
  0.00000000E+00  0.00000000E+00  0.00000000E+00  0.00000000E+00  0.00000000E+00
  0.00000000E+00  7.08742682E-02  3.39752839E-01  7.27158577E-01  1.00000000E+00
  0.00000000E+00  0.00000000E+00  0.00000000E+00  0.00000000E+00  0.00000000E+00
  0.00000000E+00  0.00000000E+00  0.00000000E+00  0.00000000E+00
Coordinates of each shell                  R   N=          24
  0.00000000E+00  0.00000000E+00  2.24244351E-01  0.00000000E+00  0.00000000E+00
  2.24244351E-01  0.00000000E+00  0.00000000E+00  2.24244351E-01  0.00000000E+00
  0.00000000E+00  2.24244351E-01  0.00000000E+00  1.43041685E+00 -8.96979292E-01
  0.00000000E+00  1.43041685E+00 -8.96979292E-01  0.00000000E+00 -1.43041685E+00
 -8.96979292E-01  0.00000000E+00 -1.43041685E+00 -8.96979292E-01
Num ILSW                                   I              100
ILSW                                       I   N=         100
           0           0           0           0           2           0
           0           0           0           0           0          -1
           5           0           0           0           0           0
           0           0           1           0           0           0
           1           1           0           0           0           0
           0           0      100000           0          -1           0
           0           0           0           0           0           0
           0           0           0           1           0           0
           0 -2000000000           1           0           0           0
           0           0           4          52           0           0
           0           0           0           0           0           0
           0           0           0           0           0           1
           0           0           0           0           0           0
           0           0           0           0           0           0
           0           0           0           0           0           0
           0           0           0           0           0           0
           0           0           0           0
Num RLSW                                   I               52
RLSW                                       R   N=          52
  1.00000000E+00  1.00000000E+00  1.00000000E+00  1.00000000E+00  1.00000000E+00
  0.00000000E+00  0.00000000E+00  1.00000000E+00  0.00000000E+00  0.00000000E+00
  0.00000000E+00  0.00000000E+00  1.00000000E+00  0.00000000E+00  0.00000000E+00
  0.00000000E+00  0.00000000E+00  1.00000000E+00  0.00000000E+00  0.00000000E+00
  0.00000000E+00  0.00000000E+00  1.00000000E+00  0.00000000E+00  0.00000000E+00
  0.00000000E+00  0.00000000E+00  1.00000000E+00  0.00000000E+00  0.00000000E+00
  0.00000000E+00  0.00000000E+00  1.00000000E+00  0.00000000E+00  0.00000000E+00
  0.00000000E+00  0.00000000E+00  0.00000000E+00  1.00000000E+00  1.00000000E+00
  0.00000000E+00  1.00000000E+00  0.00000000E+00  0.00000000E+00  0.00000000E+00
  0.00000000E+00  0.00000000E+00  0.00000000E+00  0.00000000E+00  0.00000000E+00
  0.00000000E+00  0.00000000E+00
MxBond                                     I                2
NBond                                      I   N=           3
           2           1           1
IBond                                      I   N=           6
           2           3           1           0           1           0
RBond                                      R   N=           6
  1.00000000E+00  1.00000000E+00  1.00000000E+00  0.00000000E+00  1.00000000E+00
  0.00000000E+00
Virial Ratio                               R      2.000623944770052E+00
SCF Energy                                 R     -7.600887746542098E+01
MP2 Energy                                 R     -7.619384777615848E+01
Total Energy                               R     -7.619384777615848E+01
Post-SCF wavefunction norm                 R      1.024272443162576E+00
RMS Density                                R      4.122689741818631E-09
Job Status                                 I                1
Nuclear derivative order                   I                0
External E-field                           R   N=          35
  0.00000000E+00  0.00000000E+00  0.00000000E+00  0.00000000E+00  0.00000000E+00
  0.00000000E+00  0.00000000E+00  0.00000000E+00  0.00000000E+00  0.00000000E+00
  0.00000000E+00  0.00000000E+00  0.00000000E+00  0.00000000E+00  0.00000000E+00
  0.00000000E+00  0.00000000E+00  0.00000000E+00  0.00000000E+00  0.00000000E+00
  0.00000000E+00  0.00000000E+00  0.00000000E+00  0.00000000E+00  0.00000000E+00
  0.00000000E+00  0.00000000E+00  0.00000000E+00  0.00000000E+00  0.00000000E+00
  0.00000000E+00  0.00000000E+00  0.00000000E+00  0.00000000E+00  0.00000000E+00
IOpCl                                      I                0
IROHF                                      I                0
Alpha Orbital Energies                     R   N=          18
 -2.05561473E+01 -1.33959963E+00 -7.02944256E-01 -5.71568989E-01 -4.97553633E-01
  2.13559421E-01  3.03223229E-01  1.01733382E+00  1.16228635E+00  1.16811006E+00
  1.19840829E+00  1.37911761E+00  1.66049030E+00  2.01953654E+00  2.03517564E+00
  2.06757165E+00  2.62471681E+00  2.93813706E+00
Alpha MO coefficients                      R   N=         324
  9.95793413E-01  2.19541398E-02 -8.58624271E-17  6.08686542E-16 -1.63730630E-03
 -8.09749605E-03 -8.90716833E-17 -5.21191314E-16  1.83263408E-03 -3.03037012E-05
 -1.38799245E-18 -2.88881654E-17  2.90675324E-04  1.08099133E-18  2.81593269E-04
  1.91680585E-03  2.81593269E-04  1.91680585E-03 -2.14007422E-01  4.68644470E-01
  6.43427653E-17 -5.29605017E-16 -9.16548805E-02  4.94217934E-01 -4.88298852E-17
 -2.71461462E-16 -5.73225572E-02  6.25979253E-03  7.66796029E-17  6.97413606E-17
 -1.60626448E-02  4.18887051E-17  1.30007349E-01 -7.99821861E-03  1.30007349E-01
 -7.99821861E-03  6.53698328E-17  9.91899797E-16  3.83757362E-16  5.06805115E-01
 -4.46479767E-16 -3.25154496E-15  3.17893331E-16  3.08380466E-01  1.15382476E-15
 -2.59817010E-16  1.32363450E-16 -5.13791602E-02  6.60399009E-17 -1.29545990E-16
  2.30205940E-01  1.12495256E-01 -2.30205940E-01 -1.12495256E-01 -7.03913153E-02
  1.72067358E-01  9.59552925E-17  5.87286120E-16  5.53536648E-01  2.83068021E-01
  5.04336858E-16  2.62109967E-15  4.07222114E-01 -3.50380446E-02  1.76099442E-16
 -2.22028992E-16  6.96070741E-03  7.43045785E-17 -1.42120559E-01 -7.80669167E-02
 -1.42120559E-01 -7.80669167E-02  2.20201559E-16 -2.31063644E-16  6.39367125E-01
  1.90788416E-17 -2.32944412E-16 -2.58847142E-15  5.11738716E-01 -2.61373210E-16
  1.32770658E-15 -1.58824670E-16 -3.38991528E-02  6.94612991E-17  1.50162913E-16
  2.81590663E-16  1.87687004E-16  1.70565379E-15  5.09214917E-16  2.08113588E-15
 -8.58529339E-02  1.01713309E-01  3.56296756E-16  1.00176361E-14 -2.20481785E-01
  1.18782619E+00  1.53157847E-16  3.19063806E-14 -4.90485963E-01  1.36754828E-02
  5.56652300E-17 -1.87467290E-15 -8.45562996E-03 -1.43229345E-16 -5.64464068E-02
 -9.96028536E-01 -5.64464068E-02 -9.96028536E-01 -2.65828931E-15  3.45395360E-15
  5.59551499E-17 -3.31002268E-01 -4.15665766E-15  3.60643941E-14  6.10730000E-18
 -8.29967395E-01 -1.39511223E-14  1.90538752E-16 -1.12042865E-16  2.21325904E-02
  1.65142698E-16 -1.38425598E-16  5.18743433E-02  1.38654007E+00 -5.18743433E-02
 -1.38654007E+00 -1.72098546E-15  1.69271089E-14  9.17670107E-16 -9.83002682E-02
 -1.23771317E-14 -1.56304976E-14 -8.41040904E-16 -6.39426703E-01  3.38189008E-15
 -5.26143516E-16  1.49830596E-15 -1.97368857E-01  2.14134573E-15 -4.26814585E-17
  8.38306513E-01 -4.79013333E-01 -8.38306513E-01  4.79013333E-01  6.53207377E-02
 -3.18925118E-01 -1.16802340E-13 -2.66152721E-16  3.49795867E-01  1.11396886E-01
  1.25600512E-13 -8.02685259E-15  1.96927186E-01 -1.64026982E-02 -2.54674587E-15
 -4.58118237E-15 -2.22790091E-01 -9.91382464E-16  8.78247969E-01 -4.81872245E-01
  8.78247969E-01 -4.81872245E-01 -8.45004245E-15  4.11460893E-14 -9.62912967E-01
  2.39595989E-15 -2.97926374E-14 -1.04768980E-14  1.03590454E+00 -4.26937376E-15
 -4.07125432E-14  2.46733460E-15 -1.48338865E-02 -5.13430106E-16  2.82899753E-14
 -5.18684991E-16 -1.09075088E-13  5.76685509E-14 -1.09872651E-13  5.38395596E-14
  4.50211927E-02 -3.59470298E-01 -1.30348074E-14 -5.09811228E-15 -9.09755607E-01
  8.83633191E-02  1.48677851E-14  8.00932937E-15  1.14369730E+00 -2.20382467E-02
 -3.26873616E-16  1.58251669E-15 -4.21652835E-02 -1.87504550E-15  1.55571384E-01
  1.12962648E-01  1.55571384E-01  1.12962648E-01 -4.12510839E-16  8.04733034E-15
 -2.78563606E-15 -1.03602710E+00  3.73768412E-15 -1.26628436E-14  2.98578940E-15
  1.53335900E+00 -2.31036091E-15 -6.94631609E-16 -7.86085966E-16 -1.55651684E-02
 -1.21353660E-15 -4.78418112E-16  9.45918084E-02 -9.05456118E-01 -9.45918084E-02
  9.05456118E-01  6.48399124E-02 -1.60156530E+00  1.84979429E-15 -5.20621430E-15
  2.45010671E-01  2.50249162E+00 -2.74010588E-15  5.65004196E-15 -7.22513183E-01
  4.39241560E-02  6.95654982E-16 -6.28045319E-15  2.53055635E-01 -6.62888659E-16
 -2.09768911E-01 -6.36505826E-01 -2.09768911E-01 -6.36505826E-01 -7.21089951E-04
  1.16090742E-01  1.07165988E-16 -1.21153667E-15 -7.15776150E-03 -2.27367739E-01
  4.96694101E-16  7.09446812E-16  1.34908488E-01  9.86358262E-01  2.71590550E-14
 -5.17614198E-16  1.28294349E-01 -1.64271823E-13  7.72852686E-02  4.31007888E-02
  7.72852686E-02  4.31007888E-02  1.48489942E-16  1.68907254E-14  1.20475609E-16
 -1.06034719E-15 -3.53156765E-15 -3.59236890E-14  3.34106150E-15 -4.19780869E-16
  2.65558392E-14  1.62975894E-13  6.14370039E-14  1.37064212E-15  2.18962307E-14
  1.00000000E+00  1.62602404E-14  6.18329767E-15  1.45646413E-14  5.51481574E-15
  4.88616211E-17 -2.02714126E-15  7.39532669E-03 -4.00128713E-16  1.21954380E-15
  3.43832163E-15  3.27364182E-02  1.82790132E-15 -2.68911634E-15 -2.76955055E-14
  9.99315167E-01  2.17550118E-15 -3.96763238E-15 -6.27757874E-14 -1.77538381E-15
  5.57047272E-16  3.24055967E-16 -1.86100982E-15 -1.97880852E-02 -5.71341907E-01
 -7.01286327E-16 -5.00417067E-16  4.65178365E-02  1.37292939E+00  1.78083620E-17
  4.37610641E-15 -7.33106708E-01  1.66916459E-01 -5.64310157E-17 -7.14119736E-15
 -1.07170728E+00  1.21514035E-15 -8.46424717E-01 -1.22222946E-01 -8.46424717E-01
 -1.22222946E-01 -1.48372017E-16 -8.37794597E-15 -5.89246251E-16  2.22843921E-02
  2.05724515E-15  1.80998204E-14  7.12936695E-16 -8.47747097E-01 -8.78168064E-15
  1.65957066E-15 -1.82295251E-15  1.27956324E+00 -5.07457123E-15 -1.49994014E-15
  9.42045303E-01 -4.47070551E-02 -9.42045303E-01  4.47070551E-02
Orthonormal basis                          R   N=         324
  5.29754065E-02  1.89461880E-01  1.49362543E-17 -3.35486742E-18 -6.69700749E-02
  2.51236217E-01  1.35518565E-18 -9.25816485E-18 -1.20849292E-01  4.87833645E-03
  2.47099600E-41  2.23599194E-18 -3.69260726E-02  0.00000000E+00  1.75470646E-01
  2.29903206E-01  1.75470646E-01  2.29903206E-01 -1.16325562E-17 -6.58901910E-17
 -1.87005569E-16  2.68325350E-01 -1.28533227E-16  4.85780520E-17 -1.74669666E-16
  3.84743925E-01 -7.19499310E-18  2.30620600E-18  0.00000000E+00 -1.46940550E-01
  2.48291752E-17  8.51823152E-27  2.63043966E-01  1.64872903E-01 -2.63043966E-01
 -1.64872903E-01  1.60443675E-01  2.83112581E-01 -5.21363531E-16 -2.23330231E-17
  4.34919400E-01  2.50156487E-01 -4.85128078E-16  3.22707207E-17  4.69165754E-01
 -1.01789698E-02 -3.01473852E-34 -2.50624074E-17  7.70486787E-02 -9.20025184E-39
 -1.19353201E-01  1.22196686E-02 -1.19353201E-01  1.22196686E-02  2.94501229E-16
  1.51477136E-16  5.77057836E-01  8.15514239E-17  5.40596917E-16  3.04196926E-16
  5.77057836E-01  1.07455254E-16  4.46154812E-16  3.08902191E-16  0.00000000E+00
 -1.55000667E-16 -2.15202737E-18  8.64061504E-23  4.81626948E-17  1.10232176E-16
 -2.23647552E-16 -9.36255094E-17  2.23952472E-16  9.04984783E-17  7.04320615E-17
  3.71794071E-01 -2.37805857E-16  2.05025886E-16  1.24632135E-16  2.61844932E-01
 -1.22835269E-16 -1.75076115E-17  2.07075254E-16  7.71569925E-01  8.77193847E-16
 -4.04443856E-19 -1.81983420E-01  2.61085026E-02  1.81983420E-01 -2.61085026E-02
  3.15893995E-01  1.46468835E-01 -1.33065838E-17 -3.17719327E-16 -2.83268783E-01
  4.15160948E-02  1.48495688E-17 -4.72993607E-16 -1.70028837E-01 -1.04236456E-01
 -3.78195859E-31 -8.60443103E-16  7.89007274E-01  2.95465515E-33 -1.63295414E-01
 -1.62743978E-02 -1.63295414E-01 -1.62743978E-02 -5.86699879E-16 -1.94856467E-16
 -4.96839318E-16 -1.58878029E-16  2.02736103E-16  1.13878702E-17 -5.09699174E-16
  3.29357135E-17  1.41841441E-16  9.91385951E-01 -2.99760217E-15 -8.16508468E-17
  1.30972884E-01  3.81639165E-17  7.24183019E-17  1.89633706E-16  5.75448936E-17
  1.32032596E-16 -1.48814957E-19 -2.23316938E-17 -8.25726340E-17  4.83151405E-16
  3.46729218E-18  4.78926249E-17  8.46201253E-17 -4.25712544E-16 -1.80188971E-17
  2.74667063E-15  9.99745759E-01 -4.27985915E-16  3.57696225E-16 -2.25481319E-02
 -8.32034355E-17  1.67666044E-17  6.58153076E-17 -4.66861543E-17 -1.95880234E-32
 -2.71647456E-30  1.29016799E-17  3.37083419E-17  4.56880336E-31  5.86821241E-30
 -1.28804234E-17 -2.19481171E-17 -2.14681081E-30  2.31527533E-17  2.25481319E-02
 -4.48733220E-17  3.05873092E-18  9.99745759E-01 -5.83177734E-17  7.12251629E-17
  5.83177734E-17 -7.12251629E-17  8.46564390E-01  1.09580183E-01 -8.39513415E-17
 -3.49265403E-17 -1.82140862E-01 -9.90599974E-02 -3.37657817E-16  2.06138853E-17
 -4.64414193E-02  5.58675926E-02 -2.48545899E-30  1.60792325E-16 -4.22884072E-01
  3.26216493E-32  1.53745747E-02 -1.73583623E-01  1.53745747E-02 -1.73583623E-01
 -4.03283660E-15  6.24809024E-15 -2.69242281E-16  9.77582480E-01 -6.67087868E-15
  1.96325667E-15  2.83024204E-16 -3.67265104E-01  2.68178536E-15  3.45469975E-17
 -5.83964829E-16 -3.88658620E-01 -2.32039806E-15 -3.38530335E-17 -1.35912137E-01
 -3.23325175E-01  1.35912137E-01  3.23325175E-01  4.25677672E-01 -6.64752309E-01
 -3.39857333E-16  9.50397551E-15  7.07377863E-01 -2.12328485E-01  2.64608812E-16
 -3.52107704E-15 -2.78763464E-01 -2.84277950E-02  1.97171531E-24 -3.44152432E-15
  2.15181309E-01 -4.44702104E-26  1.17365301E-01  2.98648100E-01  1.17365301E-01
  2.98648100E-01  1.27954153E-16 -6.53893567E-16  1.00152416E+00  5.76054382E-16
 -1.26080264E-16 -6.04946335E-17 -1.00152416E+00 -3.92136433E-16 -8.65094581E-17
  1.19919685E-16  2.45700865E-17 -2.02745382E-17 -2.13688837E-16  6.28994214E-16
 -5.00925053E-16  3.85202750E-16 -6.97485745E-16  1.09282124E-15  1.73928222E-01
 -7.88921240E-01 -4.90638727E-16 -4.48015719E-18 -7.18841665E-01  2.21751494E-01
  8.10023572E-16 -6.61987595E-18  8.86674979E-01  4.73234577E-03  7.18261134E-23
 -4.57655025E-16 -3.58210110E-02 -1.61995663E-24 -1.23816322E-01  4.03787724E-01
 -1.23816322E-01  4.03787724E-01  6.37476142E-02 -2.71729300E-01  1.22817184E-15
  3.26376588E-16 -2.57814251E-02  1.58874362E-01 -8.08415174E-16 -8.89079203E-18
  5.75308467E-01 -7.21345329E-02 -2.99992030E-20 -7.24163459E-16  5.46015025E-01
  6.76598005E-22  1.08671698E+00 -6.19544299E-01  1.08671698E+00 -6.19544299E-01
  9.56718679E-17 -4.67396003E-16 -4.75799010E-16 -3.73804382E-02 -2.18816538E-16
  6.39436457E-17  7.37061726E-16 -7.08252621E-01  5.72685028E-16  2.60231494E-16
 -6.41249393E-16  8.80666428E-01  4.77888394E-16 -1.90265913E-16  1.21933106E+00
 -6.96123288E-01 -1.21933106E+00  6.96123288E-01  1.54189416E-16  3.31394088E-16
  1.98067978E-17 -5.31630969E-01  3.93897894E-16 -2.11789738E-15  9.70684440E-17
  1.84650475E+00  7.02189415E-16 -1.14781937E-16  7.77184746E-17 -3.68873890E-01
  4.79775628E-16  1.22530744E-16 -2.17462769E-01 -1.53930513E+00  2.17462769E-01
  1.53930513E+00 -9.70852153E-03 -1.45199034E+00 -3.74082030E-16 -3.00602965E-16
  2.25473471E-01  3.11415411E+00 -4.53591368E-16  1.46028970E-15 -1.17197327E+00
  4.36782995E-02 -2.44053114E-16 -4.36685269E-16 -3.30618455E-01  5.50434124E-18
 -5.65882864E-01 -9.72450955E-01 -5.65882864E-01 -9.72450955E-01
Total SCF Density                          R   N=         171
  2.08471727E+00 -1.81087309E-01  4.99433597E-01  6.95282996E-17 -2.05909758E-16
  8.17580640E-01  1.42251075E-15  7.37838778E-16  4.13377156E-16  5.13702850E-01
 -4.19595337E-02  1.04512180E-01 -2.03157946E-16  2.92700877E-16  6.29612237E-01
 -2.67510539E-01  5.60282989E-01 -3.19065408E-15 -3.49665366E-15  2.22808592E-01
  6.48888880E-01 -2.12461888E-18 -1.12607300E-16  6.54377823E-01  3.41746696E-16
  3.29167189E-16 -2.41054151E-15  5.23753027E-01 -1.25049597E-15  1.23645399E-15
 -9.75403276E-17  3.12577595E-01  2.67784641E-15 -7.81408458E-16 -7.14453951E-17
  1.90197023E-01 -2.91450452E-02  8.64919352E-02  1.76824281E-15  1.71078800E-15
  4.61326511E-01  1.73853765E-01  1.77490360E-15  2.87558496E-15  3.38238169E-01
  2.19311152E-03 -6.19190380E-03 -2.09007969E-16 -3.11175220E-16 -3.99370654E-02
 -1.36484057E-02 -1.98501352E-16 -3.47288393E-16 -2.92542989E-02  2.53370099E-03
 -7.53053509E-17  1.48077654E-16 -4.33480077E-02  1.32871434E-16  1.96696652E-16
  3.51005566E-16 -3.46950178E-02  9.93572656E-17  4.46108888E-17 -6.12235758E-19
  2.29830511E-03 -6.28430958E-17 -1.14234465E-16  4.93882803E-17 -5.20784424E-02
 -2.12612531E-16  2.77827390E-16  3.84258873E-17 -3.16886587E-02 -3.07496714E-16
  4.31321668E-17 -1.83108042E-17  5.27963621E-03  6.47400883E-03 -1.26471552E-02
  1.91237347E-16  9.24821477E-17  1.06495010E-02 -1.19408944E-02  1.62226328E-16
  8.56380297E-17  7.51167712E-03 -6.88894418E-04 -1.01933990E-17 -1.21343625E-17
  6.13088993E-04 -2.62368935E-17  6.48800694E-17  3.60079625E-16 -1.31309140E-16
  7.45784663E-17  8.34532919E-17  2.88201688E-16 -7.98989052E-17  5.57185618E-17
 -4.68261059E-18 -1.90913698E-17  1.33119283E-17 -3.10633483E-19  2.06704935E-31
 -3.50761515E-02  7.29581962E-02  4.06095517E-16  2.33339095E-01 -1.81170413E-01
  4.80397956E-02  1.82355355E-16  1.41982030E-01 -1.30652944E-01  1.15868739E-02
  1.80991839E-17 -2.36555757E-02 -6.15487926E-03 -6.98726411E-17  1.80190036E-01
  1.82313075E-02 -3.42780143E-02  2.25107940E-15  1.14026342E-01 -8.49659240E-02
 -5.21332640E-02  1.73891673E-15  6.93826789E-02 -6.26571674E-02  5.37037367E-03
 -1.14586919E-16 -1.15598236E-02 -8.28742505E-04 -4.14140032E-17  7.19054049E-02
  3.76345435E-02 -3.50761515E-02  7.29581962E-02  4.63871375E-16 -2.33339095E-01
 -1.81170413E-01  4.80397956E-02  2.18708186E-16 -1.41982030E-01 -1.30652944E-01
  1.15868739E-02 -1.25583273E-16  2.36555757E-02 -6.15487926E-03  4.94163838E-17
 -3.17890628E-02 -3.16828995E-02  1.80190036E-01  1.82313075E-02 -3.42780143E-02
  2.55853768E-15 -1.14026342E-01 -8.49659240E-02 -5.21332640E-02  1.98016821E-15
 -6.93826789E-02 -6.26571674E-02  5.37037367E-03 -1.99605009E-16  1.15598236E-02
 -8.28742505E-04  1.68792339E-17 -3.16828995E-02 -1.29861870E-02  7.19054049E-02
  3.76345435E-02
Total MP2 Density                          R   N=         171
  2.08434151E+00 -1.81652371E-01  5.17668987E-01  6.07226913E-17 -1.86191009E-16
  8.05231292E-01  1.40030050E-15  7.72923232E-16  4.27260841E-16  5.43051193E-01
 -3.88040441E-02  9.02217884E-02 -2.40713150E-16  2.79675019E-16  6.39711128E-01
 -2.65113162E-01  5.38692249E-01 -3.12359956E-15 -3.41293856E-15  2.28848851E-01
  6.74167419E-01 -3.71888616E-18 -1.01428929E-16  6.30732432E-01  3.26221551E-16
  3.38142914E-16 -2.39604485E-15  5.51016892E-01 -1.31878253E-15  1.26178897E-15
 -1.16371936E-16  2.92018573E-01  2.82466329E-15 -2.94199974E-16 -6.63939889E-17
  1.71557280E-01 -3.14416932E-02  8.12659036E-02  1.76225001E-15  1.71411295E-15
  4.34874905E-01  1.99142737E-01  1.76995725E-15  3.05005438E-15  3.30094563E-01
  2.33873498E-03 -5.82235067E-03 -2.20042411E-16 -3.37091435E-16 -3.86587819E-02
 -1.57089342E-02 -1.89611829E-16 -3.66256355E-16 -2.95126183E-02  6.80868564E-03
 -7.20153353E-17  1.44915042E-16 -4.21535912E-02  1.56696373E-16  2.32331631E-16
  3.38202684E-16 -3.68121112E-02  9.95274368E-17  3.76627199E-17 -4.83654628E-18
  6.69696438E-03 -5.27666047E-17 -1.13624534E-16  4.39260204E-17 -4.67306322E-02
 -2.38455232E-16  1.91286700E-16  3.59103867E-17 -2.52689153E-02 -3.29124621E-16
  4.63156833E-17 -1.64758063E-17  7.85870217E-03  6.64973897E-03 -1.33713626E-02
  2.08403573E-16  1.07337759E-16  7.00637632E-03 -1.26041206E-02  1.64699333E-16
  7.25437195E-17  3.16319581E-03 -4.66739622E-04 -9.98479618E-18 -1.36701028E-17
  4.46359477E-03 -2.24019187E-17  5.06013270E-17  3.61162131E-16 -1.64495669E-16
  4.31287811E-17  7.93050589E-17  2.71487362E-16 -8.05521424E-17  5.13622714E-17
  1.23546611E-18 -2.57584071E-17  1.45419347E-17 -4.03189308E-18  4.44183374E-03
 -3.40273224E-02  7.18749880E-02  4.07634989E-16  2.26532512E-01 -1.75828785E-01
  3.79071724E-02  1.39024970E-16  1.31931416E-01 -1.26252570E-01  1.15252132E-02
  1.44862742E-17 -2.15228947E-02 -5.94620623E-03 -6.86545253E-17  1.86967468E-01
  1.82373218E-02 -3.24801302E-02  2.20835995E-15  1.20989208E-01 -9.22322026E-02
 -6.02823382E-02  1.74065528E-15  7.27211911E-02 -7.22888372E-02  6.40596723E-03
 -1.11584327E-16 -1.13605933E-02 -5.72785201E-04 -3.75492028E-17  8.39367570E-02
  5.09847402E-02 -3.40273224E-02  7.18749880E-02  4.86941486E-16 -2.26532512E-01
 -1.75828785E-01  3.79071724E-02  1.74672612E-16 -1.31931416E-01 -1.26252570E-01
  1.15252132E-02 -1.16245221E-16  2.15228947E-02 -5.94620623E-03  6.11894555E-17
 -3.08886137E-02 -3.37435160E-02  1.86967468E-01  1.82373218E-02 -3.24801302E-02
  2.48276070E-15 -1.20989208E-01 -9.22322026E-02 -6.02823382E-02  1.97893016E-15
 -7.27211911E-02 -7.22888372E-02  6.40596723E-03 -2.06318019E-16  1.13605933E-02
 -5.72785201E-04  9.98575180E-18 -3.37435160E-02 -1.70434033E-02  8.39367570E-02
  5.09847402E-02
Mulliken Charges                           R   N=           3
 -8.56122536E-01  4.28061268E-01  4.28061268E-01
ONIOM Charges                              I   N=          16
           0           0           0           0           0           0
           0           0           0           0           0           0
           0           0           0           0
ONIOM Multiplicities                       I   N=          16
           1           0           0           0           0           0
           0           0           0           0           0           0
           0           0           0           0
Atom Layers                                I   N=           3
           1           1           1
Atom Modifiers                             I   N=           3
           0           0           0
Force Field                                I                0
Atom Modified Types                        C   N=           3
                                    
Int Atom Modified Types                    I   N=           3
           0           0           0
Link Atoms                                 I   N=           3
           0           0           0
Atom Modified MM Charges                   R   N=           3
  0.00000000E+00  0.00000000E+00  0.00000000E+00
Link Distances                             R   N=          12
  0.00000000E+00  0.00000000E+00  0.00000000E+00  0.00000000E+00  0.00000000E+00
  0.00000000E+00  0.00000000E+00  0.00000000E+00  0.00000000E+00  0.00000000E+00
  0.00000000E+00  0.00000000E+00
Cartesian Gradient                         R   N=           9
  0.00000000E+00  0.00000000E+00  0.00000000E+00  0.00000000E+00  0.00000000E+00
  0.00000000E+00  0.00000000E+00  0.00000000E+00  0.00000000E+00
Nonadiabatic coupling                      R   N=           9
  0.00000000E+00  0.00000000E+00  0.00000000E+00  0.00000000E+00  0.00000000E+00
  0.00000000E+00  0.00000000E+00  0.00000000E+00  0.00000000E+00
Dipole Moment                              R   N=           3
 -1.58243306E-15 -1.05308918E-14 -8.64179885E-01
Quadrupole Moment                          R   N=           6
 -1.08487998E+00  1.20683459E+00 -1.21954611E-01  1.11587464E-16 -1.41377405E-15
  6.97313745E-15
QEq coupling tensors                       R   N=          18
  1.72847781E+00 -7.96025391E-17 -1.46568191E+00  1.60457903E-15  3.24187875E-15
 -2.62795893E-01  2.80693430E-01  4.30331970E-16 -2.31491002E-01 -1.86810884E-16
  3.41462300E-01 -4.92024276E-02  2.80693430E-01 -4.16851353E-16 -2.31491002E-01
 -1.61656891E-16 -3.41462300E-01 -4.92024276E-02
ClPar MaxAn                                I              200
ClPar NIntPar                              I                4
ClPar NRealPar                             I               16
ClPar NBits                                I               30
ClPar LenBitVec                            I                1
ClPar Read BitMap                          I   N=         200
           0           0           0           0           0           0
           0           0           0           0           0           0
           0           0           0           0           0           0
           0           0           0           0           0           0
           0           0           0           0           0           0
           0           0           0           0           0           0
           0           0           0           0           0           0
           0           0           0           0           0           0