Calculo de punto sencillo de H2O^-1 a nivel de teoria UMP2/6-31G(d), opt
SP        UMP2-FC                                                     6-31G(d)            
Number of atoms                            I                3
Info1-9                                    I   N=           9
          12          12           0           0           0         110
           1           2           1
Full Title                                 C   N=          11
Calculo de punto sencillo de H2O^-1 a nivel de teoria UMP2/6
-31G(d), optimizada geometricamente a nivel de teoria B3LYP/
6-311G(d,p) 
Route                                      C   N=           4
# UMP2/6-31g(d) NoSymm 5D Density=Current       
Charge                                     I               -1
Multiplicity                               I                2
Number of electrons                        I               11
Number of alpha electrons                  I                6
Number of beta electrons                   I                5
Number of basis functions                  I               18
Number of independent functions            I               18
Number of point charges in /Mol/           I                0
Number of translation vectors              I                0
Atomic numbers                             I   N=           3
           8           1           1
Nuclear charges                            R   N=           3
  8.00000000E+00  1.00000000E+00  1.00000000E+00
Current cartesian coordinates              R   N=           9
  0.00000000E+00  0.00000000E+00  2.24244351E-01  0.00000000E+00  1.43041685E+00
 -8.96979292E-01  0.00000000E+00 -1.43041685E+00 -8.96979292E-01
Number of symbols in /Mol/                 I                0
Force Field                                I                0
Atom Types                                 C   N=           3
                                    
Int Atom Types                             I   N=           3
           0           0           0
MM charges                                 R   N=           3
  0.00000000E+00  0.00000000E+00  0.00000000E+00
Integer atomic weights                     I   N=           3
          16           1           1
Real atomic weights                        R   N=           3
  1.59949146E+01  1.00782504E+00  1.00782504E+00
Atom fragment info                         I   N=           3
           0           0           0
Atom residue num                           I   N=           3
           0           0           0
Nuclear spins                              I   N=           3
           0           1           1
Nuclear ZEff                               R   N=           3
 -5.60000000E+00 -1.00000000E+00 -1.00000000E+00
Nuclear ZNuc                               R   N=           3
  8.00000000E+00  1.00000000E+00  1.00000000E+00
Nuclear QMom                               R   N=           3
  0.00000000E+00  0.00000000E+00  0.00000000E+00
Nuclear GFac                               R   N=           3
  0.00000000E+00  2.79284600E+00  2.79284600E+00
MicOpt                                     I   N=           3
          -1          -1          -1
Number of residues                         I                0
Number of secondary structures             I                0
Number of contracted shells                I                8
Number of primitive shells                 I               19
Pure/Cartesian d shells                    I                0
Pure/Cartesian f shells                    I                0
Highest angular momentum                   I                2
Largest degree of contraction              I                6
Shell types                                I   N=           8
           0          -1          -1          -2           0           0
           0           0
Number of primitives per shell             I   N=           8
           6           3           1           1           3           1
           3           1
Shell to atom map                          I   N=           8
           1           1           1           1           2           2
           3           3
Primitive exponents                        R   N=          19
  5.48467166E+03  8.25234946E+02  1.88046958E+02  5.29645000E+01  1.68975704E+01
  5.79963534E+00  1.55396162E+01  3.59993359E+00  1.01376175E+00  2.70005823E-01
  8.00000000E-01  1.87311370E+01  2.82539436E+00  6.40121692E-01  1.61277759E-01
  1.87311370E+01  2.82539436E+00  6.40121692E-01  1.61277759E-01
Contraction coefficients                   R   N=          19
  1.83107443E-03  1.39501722E-02  6.84450781E-02  2.32714336E-01  4.70192898E-01
  3.58520853E-01 -1.10777550E-01 -1.48026263E-01  1.13076702E+00  1.00000000E+00
  1.00000000E+00  3.34946043E-02  2.34726953E-01  8.13757326E-01  1.00000000E+00
  3.34946043E-02  2.34726953E-01  8.13757326E-01  1.00000000E+00
P(S=P) Contraction coefficients            R   N=          19
  0.00000000E+00  0.00000000E+00  0.00000000E+00  0.00000000E+00  0.00000000E+00
  0.00000000E+00  7.08742682E-02  3.39752839E-01  7.27158577E-01  1.00000000E+00
  0.00000000E+00  0.00000000E+00  0.00000000E+00  0.00000000E+00  0.00000000E+00
  0.00000000E+00  0.00000000E+00  0.00000000E+00  0.00000000E+00
Coordinates of each shell                  R   N=          24
  0.00000000E+00  0.00000000E+00  2.24244351E-01  0.00000000E+00  0.00000000E+00
  2.24244351E-01  0.00000000E+00  0.00000000E+00  2.24244351E-01  0.00000000E+00
  0.00000000E+00  2.24244351E-01  0.00000000E+00  1.43041685E+00 -8.96979292E-01
  0.00000000E+00  1.43041685E+00 -8.96979292E-01  0.00000000E+00 -1.43041685E+00
 -8.96979292E-01  0.00000000E+00 -1.43041685E+00 -8.96979292E-01
Num ILSW                                   I              100
ILSW                                       I   N=         100
           1           0           0           0           2           0
           0           0           0           0           0          -1
           5           0           0           0           0           0
           0           0           1           0           0           0
           1           1           0           0           0           0
           0           0      100000           0          -1           0
           0           0           0           0           0           0
           0           0           0           1           0           0
           0 -2000000000           1           0           0           0
           0           0           4          52           0           0
           0           0           0           0           0           0
           0           0           0           0           0           1
           0           0           0           0           0           0
           0           0           0           0           0           0
           0           0           0           0           0           0
           0           0           0           0           0           0
           0           0           0           0
Num RLSW                                   I               52
RLSW                                       R   N=          52
  1.00000000E+00  1.00000000E+00  1.00000000E+00  1.00000000E+00  1.00000000E+00
  0.00000000E+00  0.00000000E+00  1.00000000E+00  0.00000000E+00  0.00000000E+00
  0.00000000E+00  0.00000000E+00  1.00000000E+00  0.00000000E+00  0.00000000E+00
  0.00000000E+00  0.00000000E+00  1.00000000E+00  0.00000000E+00  0.00000000E+00
  0.00000000E+00  0.00000000E+00  1.00000000E+00  0.00000000E+00  0.00000000E+00
  0.00000000E+00  0.00000000E+00  1.00000000E+00  0.00000000E+00  0.00000000E+00
  0.00000000E+00  0.00000000E+00  1.00000000E+00  0.00000000E+00  0.00000000E+00
  0.00000000E+00  0.00000000E+00  0.00000000E+00  1.00000000E+00  1.00000000E+00
  0.00000000E+00  1.00000000E+00  0.00000000E+00  0.00000000E+00  0.00000000E+00
  0.00000000E+00  0.00000000E+00  0.00000000E+00  0.00000000E+00  0.00000000E+00
  0.00000000E+00  0.00000000E+00
MxBond                                     I                2
NBond                                      I   N=           3
           2           1           1
IBond                                      I   N=           6
           2           3           1           0           1           0
RBond                                      R   N=           6
  1.00000000E+00  1.00000000E+00  1.00000000E+00  0.00000000E+00  1.00000000E+00
  0.00000000E+00
Virial Ratio                               R      1.991145310003302E+00
SCF Energy                                 R     -7.580613449769010E+01
MP2 Energy                                 R     -7.600063210027182E+01
Total Energy                               R     -7.600063210027182E+01
PUHF Energy                                R     -7.580779310677539E+01
PMP2-0 Energy                              R     -7.600163987989717E+01
Post-SCF wavefunction norm                 R      1.026231797765205E+00
S**2                                       R      7.572607203853954E-01
S**2 after annihilation                    R      7.500178654460591E-01
S**2 corrected to first order              R      7.515541728245685E-01
RMS Density                                R      3.293876473710715E-09
Job Status                                 I                1
Nuclear derivative order                   I                0
External E-field                           R   N=          35
  0.00000000E+00  0.00000000E+00  0.00000000E+00  0.00000000E+00  0.00000000E+00
  0.00000000E+00  0.00000000E+00  0.00000000E+00  0.00000000E+00  0.00000000E+00
  0.00000000E+00  0.00000000E+00  0.00000000E+00  0.00000000E+00  0.00000000E+00
  0.00000000E+00  0.00000000E+00  0.00000000E+00  0.00000000E+00  0.00000000E+00
  0.00000000E+00  0.00000000E+00  0.00000000E+00  0.00000000E+00  0.00000000E+00
  0.00000000E+00  0.00000000E+00  0.00000000E+00  0.00000000E+00  0.00000000E+00
  0.00000000E+00  0.00000000E+00  0.00000000E+00  0.00000000E+00  0.00000000E+00
IOpCl                                      I                1
IROHF                                      I                0
Alpha Orbital Energies                     R   N=          18
 -2.02087815E+01 -1.02652461E+00 -3.61731996E-01 -2.67132060E-01 -1.73846837E-01
  1.91087469E-01  5.37897018E-01  1.33765110E+00  1.46833252E+00  1.46954948E+00
  1.49178851E+00  1.69322063E+00  1.96442716E+00  2.34403845E+00  2.36403359E+00
  2.38915843E+00  2.95108351E+00  3.26058666E+00
Beta Orbital Energies                      R   N=          18
 -2.01953902E+01 -9.80441322E-01 -3.55117813E-01 -2.36086896E-01 -1.58094995E-01
  5.38800999E-01  6.22468625E-01  1.34942392E+00  1.49129455E+00  1.50539542E+00
  1.52633768E+00  1.70139499E+00  1.99690440E+00  2.35306408E+00  2.36190656E+00
  2.39875498E+00  2.96029374E+00  3.27626642E+00
Alpha MO coefficients                      R   N=         324
  9.95791323E-01  2.18770548E-02 -8.68708794E-17 -3.19834626E-16 -1.12258702E-03
 -7.87770799E-03 -8.74112527E-17  7.30851802E-16  1.58044160E-03  9.39121275E-05
 -4.27564660E-18  2.07035925E-16  3.18520926E-04 -1.03946024E-18  2.60921407E-04
  1.80990807E-03  2.60921407E-04  1.80990807E-03 -2.15534767E-01  4.83175494E-01
 -5.69427207E-17  5.80303443E-16 -1.14276443E-01  4.82702562E-01  7.27456146E-17
 -1.34240107E-15 -4.47239427E-02  7.16468654E-03 -7.12285532E-18  3.19298962E-16
 -1.21829100E-02 -1.59079047E-18  1.20706322E-01 -3.34820471E-03  1.20706322E-01
 -3.34820471E-03  6.59517296E-16 -8.25110703E-16  1.16585292E-15  4.75127593E-01
  1.30346811E-16 -5.14231323E-15  9.71340429E-16  2.77770197E-01  1.07398684E-15
 -3.54364976E-16 -2.20208167E-16 -4.07618942E-02  1.06202209E-16 -3.85325930E-17
  2.16166541E-01  2.11568612E-01 -2.16166541E-01 -2.11568612E-01 -6.66893015E-02
  1.31539178E-01  6.91408708E-16  8.27679397E-16  5.57957069E-01  3.11734211E-01
  6.71784173E-16  2.08742622E-15  4.19067082E-01 -2.45533964E-02  5.17410619E-17
 -1.77487371E-16  6.15622732E-03  9.13986580E-17 -1.27462754E-01 -7.84028571E-02
 -1.27462754E-01 -7.84028571E-02  1.49505787E-16 -3.68985854E-16  6.23757502E-01
 -6.04865336E-16 -5.48728404E-16 -9.79844345E-16  5.28665008E-01 -4.30514458E-16
  7.04065898E-17  1.53558102E-17 -2.60423690E-02  6.70186908E-17  5.22982948E-17
  7.77676421E-16 -1.17667156E-16  3.27460517E-16  4.71190191E-16  1.18884589E-15
 -8.59537184E-02  1.13984834E-01  5.92385110E-16  1.42232456E-15 -2.26064976E-01
  1.16697341E+00 -3.84355883E-16  3.08511847E-15 -4.66843103E-01  1.51750284E-02
  3.66008782E-17 -7.34643668E-16 -6.21770786E-03  5.46744798E-17 -7.13559234E-02
 -9.82919346E-01 -7.13559234E-02 -9.82919346E-01 -3.25127693E-16  6.07005698E-15
  8.41908353E-17 -3.41799800E-01 -1.77512852E-15 -8.56933464E-15  5.32677365E-17
 -8.59864748E-01  3.41423136E-15  8.40254099E-17  1.07258193E-17  3.20623993E-02
  8.58860397E-16 -1.57134407E-16  8.10343581E-03  1.40702048E+00 -8.10343581E-03
 -1.40702048E+00  4.13369352E-16  1.14367259E-14  3.90333741E-16 -3.50858962E-02
  2.29930588E-14 -1.92180881E-14 -2.41862997E-16 -7.47731058E-01 -6.55301628E-15
 -4.03851636E-16 -2.45093491E-16 -1.95776520E-01 -2.81055526E-15  7.74514878E-18
  8.38099347E-01 -3.78417209E-01 -8.38099347E-01  3.78417209E-01  1.75648121E-14
 -5.20583927E-14 -9.73003537E-01  3.63470778E-15  9.91258522E-13  1.66430322E-13
  1.02778618E+00 -5.07579773E-15 -7.45764792E-13 -5.03040621E-15 -8.75265065E-04
 -3.94268965E-16 -1.59083744E-13  1.48942478E-15  6.31281542E-13 -5.46750217E-13
  6.32231738E-13 -5.52981891E-13  1.05206063E-02 -1.16451219E-02  1.11977534E-12
  2.74195989E-15  8.85098220E-01  1.26953709E-01 -1.18386589E-12  1.76761070E-14
 -7.00479819E-01 -4.46058859E-03  6.79881007E-16  7.91561778E-15 -1.28371223E-01
  1.15472806E-15  5.07295538E-01 -4.59952886E-01  5.07295538E-01 -4.59952886E-01
  8.09506122E-02 -5.45471201E-01  6.68086473E-14  4.15139683E-15 -4.05952882E-01
  2.43580186E-01 -6.98828987E-14 -2.40262479E-15  9.10573586E-01 -1.29406282E-02
  5.71749090E-16  2.43550625E-15 -1.79753890E-01 -8.43142860E-16  7.18374540E-01
 -2.85378246E-01  7.18374540E-01 -2.85378246E-01  7.92210525E-16 -2.22008663E-14
 -3.98815993E-15 -1.05155873E+00  3.23366942E-15  3.50339995E-14  3.98476212E-15
  1.47403141E+00 -8.82917718E-15 -5.38738482E-16  2.80920118E-16 -2.88580721E-02
  3.60408936E-16  1.38882805E-15  1.40685958E-01 -9.03638875E-01 -1.40685958E-01
  9.03638875E-01  6.02933743E-02 -1.58396003E+00  2.08621815E-15  1.16563269E-14
  2.23842618E-01  2.50789440E+00 -1.79479300E-15 -2.25538952E-14 -7.56031442E-01
  1.64903190E-02  3.73351366E-15 -7.16531249E-15  2.57783529E-01  7.59116712E-15
 -2.53429148E-01 -6.20655414E-01 -2.53429148E-01 -6.20655414E-01  1.40037284E-03
  7.31773309E-02  2.36962420E-15 -8.45945623E-16  8.69555953E-03 -1.62486197E-01
 -4.06725920E-16  2.00205634E-15  9.24500983E-02  9.87593474E-01  8.50548210E-14
  3.53753674E-17  1.37645982E-01  9.57465840E-14  6.95259021E-02  2.62950094E-02
  6.95259021E-02  2.62950094E-02 -5.89575788E-16  6.24703534E-15  3.61237728E-16
  1.61837217E-15 -4.62651243E-15 -6.54107741E-15 -3.67038743E-15 -4.82776706E-15
  2.40082001E-16 -9.54295972E-14 -1.52448255E-13  1.80655917E-15 -1.65651577E-14
  1.00000000E+00 -4.03424609E-15  6.70765079E-15 -5.96255013E-15  1.11844906E-15
 -4.24729364E-16  2.08043388E-15  1.53977152E-02  6.17223202E-17 -6.13832624E-16
  3.46146630E-16  1.46722564E-02 -2.57700228E-15 -4.45957827E-15 -8.59558671E-14
  9.99660457E-01  1.92398508E-15 -1.17637266E-14  1.54321041E-13 -2.75331686E-15
  1.25643704E-15 -5.73276929E-15  1.07464132E-15 -2.06720457E-02 -5.65441064E-01
 -6.37449967E-16 -1.06694849E-15  4.26211168E-02  1.36793082E+00  1.44361543E-16
  1.26921970E-14 -7.33949052E-01  1.67979192E-01  1.23819482E-15 -2.75408236E-14
 -1.07071470E+00 -1.07796652E-15 -8.50787734E-01 -1.18060327E-01 -8.50787734E-01
 -1.18060327E-01 -2.75968909E-16 -1.85709340E-14 -6.54289038E-16  1.85876655E-02
  1.11397229E-15  4.02865139E-14  8.05778169E-16 -8.45151972E-01 -1.89763572E-14
  3.94499420E-15 -2.08330562E-15  1.27974909E+00 -2.09502936E-14 -1.85663421E-15
  9.41192755E-01 -4.71286106E-02 -9.41192755E-01  4.71286106E-02
Beta MO coefficients                       R   N=         324
  9.95793910E-01  2.18951718E-02 -8.82978031E-17 -3.38276800E-16 -9.44131248E-04
 -7.94733150E-03 -8.79393047E-17 -7.44601292E-16  1.55201527E-03 -6.34194635E-05
 -5.47142032E-18 -2.84916736E-16  2.49795736E-04  2.48162357E-19  2.72849918E-04
  1.84038678E-03  2.72849918E-04  1.84038678E-03 -2.15522215E-01  4.62835845E-01
  2.47861347E-16  2.16000033E-15 -5.96978414E-02  5.11583413E-01 -2.76535670E-16
 -1.47374801E-15 -3.64417099E-02  1.06462534E-03 -7.74745986E-18 -1.06574956E-16
 -1.65986125E-02 -1.85699115E-17  1.21754639E-01 -3.96795271E-03  1.21754639E-01
 -3.96795271E-03  1.29646544E-15 -2.51021580E-15  1.03482892E-15  5.08500034E-01
 -4.75666809E-15 -4.50701508E-15  8.85231153E-16  3.32370653E-01 -4.01982447E-15
  1.12199650E-16  1.95535799E-17 -4.41279152E-02 -3.95372577E-16  7.60961265E-17
  2.11936637E-01  1.10968963E-01 -2.11936637E-01 -1.10968963E-01 -5.88967450E-02
  1.40981657E-01  1.32812960E-15  4.79673967E-15  5.44823782E-01  2.57183934E-01
  4.69273653E-16  5.72424300E-15  4.30069862E-01 -2.32106895E-02 -4.87960748E-17
 -6.56272464E-16  9.27075574E-03 -3.85282437E-17 -1.42786362E-01 -7.42530804E-02
 -1.42786362E-01 -7.42530804E-02  1.02426181E-16 -1.93412097E-16  6.17069364E-01
 -5.67181723E-16 -1.03763570E-15 -2.83374525E-16  5.35840425E-01 -3.63772025E-16
 -3.28368707E-16  4.23819504E-17 -2.10736340E-02  9.29279886E-17 -6.16581203E-17
  3.19554360E-16  1.53369092E-16 -3.76458589E-16  8.80183266E-16 -1.00358496E-16
 -8.73553504E-02  9.48441925E-02 -1.09585195E-16  1.99629235E-14 -1.84829819E-01
  1.21557520E+00  1.15426909E-16  5.56084135E-14 -5.17590935E-01  8.47258678E-03
  1.19616585E-18 -2.17784385E-15 -9.98766989E-03 -3.47116139E-16 -3.54065682E-02
 -1.01733644E+00 -3.54065682E-02 -1.01733644E+00 -5.59739080E-15  1.31885614E-14
  8.21658957E-17 -3.09725877E-01 -1.17809144E-14  6.51835157E-14  1.78277780E-17
 -8.34098645E-01 -2.86642582E-14  4.47411764E-16  1.84830698E-16  1.50166601E-02
  4.69555198E-16  3.25827913E-16  3.06429362E-02  1.40927060E+00 -3.06429362E-02
 -1.40927060E+00 -2.29930148E-16  1.84814000E-14  5.17274433E-16 -4.57030177E-02
  1.26847215E-14 -2.94329953E-14 -1.97104927E-16 -7.08477508E-01  1.20608048E-15
  9.59212521E-16  8.02094241E-16 -2.01543258E-01 -1.56607686E-15  4.48091851E-17
  8.36258285E-01 -4.14149035E-01 -8.36258285E-01  4.14149035E-01  2.98705600E-15
 -7.69916874E-15 -9.77379886E-01  3.88098804E-15  3.89261160E-14 -4.93783429E-15
  1.02388034E+00 -5.59035948E-15 -9.25312700E-15  8.55885226E-16 -1.26970210E-02
 -4.00638273E-16 -1.26139886E-14  2.82535593E-15  4.72139899E-14 -2.20703819E-14
  4.80585200E-14 -2.87727649E-14  6.52833629E-02 -5.02912532E-01 -1.83988688E-15
  9.39136161E-16 -7.62096062E-01  2.30411311E-01  2.49882966E-15 -5.90209284E-15
  1.10537154E+00 -1.69397988E-02  1.26466853E-15 -1.90909280E-15 -1.00657262E-01
 -1.07143734E-15  4.05884036E-01 -7.71027107E-02  4.05884036E-01 -7.71027107E-02
  4.92933354E-02 -1.56801775E-01  6.11174396E-14  1.01291140E-14  6.10057907E-01
 -2.23382831E-02 -6.35539002E-14 -1.06296638E-15 -1.24872789E-01  1.68719985E-04
  9.10308415E-16  5.66666785E-15 -2.14528220E-01  5.34693429E-16  7.89913237E-01
 -4.42142235E-01  7.89913237E-01 -4.42142235E-01  1.12430405E-15 -1.93976424E-14
 -4.30464246E-15 -1.04557594E+00  7.89484218E-15  2.90043361E-14  4.22416290E-15
  1.49647416E+00 -9.75840846E-15 -1.17869324E-16  9.12850916E-16 -3.38809279E-02
 -1.83391916E-15  6.89620481E-16  1.24028884E-01 -9.02658992E-01 -1.24028884E-01
  9.02658992E-01  6.61718735E-02 -1.58876705E+00 -7.63994098E-16  8.92792133E-15
  2.92998909E-01  2.47169331E+00  6.81783704E-16 -2.01978808E-14 -7.60406054E-01
  3.67439622E-02  1.80944050E-15 -8.47619136E-15  2.59090894E-01 -2.25780796E-15
 -1.96731704E-01 -6.37141821E-01 -1.96731704E-01 -6.37141821E-01 -1.52160892E-03
  1.15759087E-01  4.51977450E-16 -8.50275364E-16 -1.49395973E-02 -2.18991425E-01
 -1.88956142E-15  3.52707454E-15  1.22223737E-01  9.85797811E-01 -1.28289523E-14
  5.95235558E-16  1.41347399E-01 -5.92729394E-13  7.51755959E-02  4.02392771E-02
  7.51755959E-02  4.02392771E-02 -7.65971564E-16  6.24898017E-14  4.26743543E-15
  1.51901141E-15 -1.01115177E-14 -1.18672308E-13 -6.22036363E-15 -1.32013295E-15
  7.02168419E-14  5.86911089E-13 -8.03903244E-14  1.73227064E-15  8.23290422E-14
  1.00000000E+00  4.33137338E-14  1.99835040E-14  4.13176719E-14  2.19475087E-14
 -3.85586375E-16  6.43328945E-15  5.94260850E-04  1.67908646E-15  5.82504581E-16
 -8.34860700E-15  2.42996908E-02 -1.73004085E-15  5.55842170E-16  1.28900712E-14
  9.99697298E-01  2.22602634E-15  1.49780821E-15  8.15641249E-14  5.22128364E-16
  2.44978536E-15  2.77093911E-16  7.85679602E-16 -1.97855079E-02 -5.80739343E-01
 -7.94150898E-16  1.89522173E-15  4.56483324E-02  1.39223830E+00  1.59199038E-16
  9.74324616E-15 -7.41217990E-01  1.75657545E-01  2.54417394E-16 -2.70335029E-14
 -1.06635911E+00 -2.88729158E-15 -8.55975384E-01 -1.24990342E-01 -8.55975384E-01
 -1.24990342E-01 -1.52954212E-16 -2.00144389E-14 -6.51282397E-16  1.02666524E-02
  1.13777464E-15  4.30341711E-14  8.10384500E-16 -8.45641625E-01 -1.90405420E-14
  4.00144374E-15 -2.06986130E-15  1.27893242E+00 -2.02382538E-14 -1.84626447E-15
  9.45660238E-01 -4.22065934E-02 -9.45660238E-01  4.22065934E-02
Orthonormal basis                          R   N=         324
  5.29754065E-02  1.89461880E-01  1.49362543E-17 -3.35486742E-18 -6.69700749E-02
  2.51236217E-01  1.35518565E-18 -9.25816485E-18 -1.20849292E-01  4.87833645E-03
  2.47099600E-41  2.23599194E-18 -3.69260726E-02  0.00000000E+00  1.75470646E-01
  2.29903206E-01  1.75470646E-01  2.29903206E-01 -1.16325562E-17 -6.58901910E-17
 -1.87005569E-16  2.68325350E-01 -1.28533227E-16  4.85780520E-17 -1.74669666E-16
  3.84743925E-01 -7.19499310E-18  2.30620600E-18  0.00000000E+00 -1.46940550E-01
  2.48291752E-17  8.51823152E-27  2.63043966E-01  1.64872903E-01 -2.63043966E-01
 -1.64872903E-01  1.60443675E-01  2.83112581E-01 -5.21363531E-16 -2.23330231E-17
  4.34919400E-01  2.50156487E-01 -4.85128078E-16  3.22707207E-17  4.69165754E-01
 -1.01789698E-02 -3.01473852E-34 -2.50624074E-17  7.70486787E-02 -9.20025184E-39
 -1.19353201E-01  1.22196686E-02 -1.19353201E-01  1.22196686E-02  2.94501229E-16
  1.51477136E-16  5.77057836E-01  8.15514239E-17  5.40596917E-16  3.04196926E-16
  5.77057836E-01  1.07455254E-16  4.46154812E-16  3.08902191E-16  0.00000000E+00
 -1.55000667E-16 -2.15202737E-18  8.64061504E-23  4.81626948E-17  1.10232176E-16
 -2.23647552E-16 -9.36255094E-17  2.23952472E-16  9.04984783E-17  7.04320615E-17
  3.71794071E-01 -2.37805857E-16  2.05025886E-16  1.24632135E-16  2.61844932E-01
 -1.22835269E-16 -1.75076115E-17  2.07075254E-16  7.71569925E-01  8.77193847E-16
 -4.04443856E-19 -1.81983420E-01  2.61085026E-02  1.81983420E-01 -2.61085026E-02
  3.15893995E-01  1.46468835E-01 -1.33065838E-17 -3.17719327E-16 -2.83268783E-01
  4.15160948E-02  1.48495688E-17 -4.72993607E-16 -1.70028837E-01 -1.04236456E-01
 -3.78195859E-31 -8.60443103E-16  7.89007274E-01  2.95465515E-33 -1.63295414E-01
 -1.62743978E-02 -1.63295414E-01 -1.62743978E-02 -5.86699879E-16 -1.94856467E-16
 -4.96839318E-16 -1.58878029E-16  2.02736103E-16  1.13878702E-17 -5.09699174E-16
  3.29357135E-17  1.41841441E-16  9.91385951E-01 -2.99760217E-15 -8.16508468E-17
  1.30972884E-01  3.81639165E-17  7.24183019E-17  1.89633706E-16  5.75448936E-17
  1.32032596E-16 -1.48814957E-19 -2.23316938E-17 -8.25726340E-17  4.83151405E-16
  3.46729218E-18  4.78926249E-17  8.46201253E-17 -4.25712544E-16 -1.80188971E-17
  2.74667063E-15  9.99745759E-01 -4.27985915E-16  3.57696225E-16 -2.25481319E-02
 -8.32034355E-17  1.67666044E-17  6.58153076E-17 -4.66861543E-17 -1.95880234E-32
 -2.71647456E-30  1.29016799E-17  3.37083419E-17  4.56880336E-31  5.86821241E-30
 -1.28804234E-17 -2.19481171E-17 -2.14681081E-30  2.31527533E-17  2.25481319E-02
 -4.48733220E-17  3.05873092E-18  9.99745759E-01 -5.83177734E-17  7.12251629E-17
  5.83177734E-17 -7.12251629E-17  8.46564390E-01  1.09580183E-01 -8.39513415E-17
 -3.49265403E-17 -1.82140862E-01 -9.90599974E-02 -3.37657817E-16  2.06138853E-17
 -4.64414193E-02  5.58675926E-02 -2.48545899E-30  1.60792325E-16 -4.22884072E-01
  3.26216493E-32  1.53745747E-02 -1.73583623E-01  1.53745747E-02 -1.73583623E-01
 -4.03283660E-15  6.24809024E-15 -2.69242281E-16  9.77582480E-01 -6.67087868E-15
  1.96325667E-15  2.83024204E-16 -3.67265104E-01  2.68178536E-15  3.45469975E-17
 -5.83964829E-16 -3.88658620E-01 -2.32039806E-15 -3.38530335E-17 -1.35912137E-01
 -3.23325175E-01  1.35912137E-01  3.23325175E-01  4.25677672E-01 -6.64752309E-01
 -3.39857333E-16  9.50397551E-15  7.07377863E-01 -2.12328485E-01  2.64608812E-16
 -3.52107704E-15 -2.78763464E-01 -2.84277950E-02  1.97171531E-24 -3.44152432E-15
  2.15181309E-01 -4.44702104E-26  1.17365301E-01  2.98648100E-01  1.17365301E-01
  2.98648100E-01  1.27954153E-16 -6.53893567E-16  1.00152416E+00  5.76054382E-16
 -1.26080264E-16 -6.04946335E-17 -1.00152416E+00 -3.92136433E-16 -8.65094581E-17
  1.19919685E-16  2.45700865E-17 -2.02745382E-17 -2.13688837E-16  6.28994214E-16
 -5.00925053E-16  3.85202750E-16 -6.97485745E-16  1.09282124E-15  1.73928222E-01
 -7.88921240E-01 -4.90638727E-16 -4.48015719E-18 -7.18841665E-01  2.21751494E-01
  8.10023572E-16 -6.61987595E-18  8.86674979E-01  4.73234577E-03  7.18261134E-23
 -4.57655025E-16 -3.58210110E-02 -1.61995663E-24 -1.23816322E-01  4.03787724E-01
 -1.23816322E-01  4.03787724E-01  6.37476142E-02 -2.71729300E-01  1.22817184E-15
  3.26376588E-16 -2.57814251E-02  1.58874362E-01 -8.08415174E-16 -8.89079203E-18
  5.75308467E-01 -7.21345329E-02 -2.99992030E-20 -7.24163459E-16  5.46015025E-01
  6.76598005E-22  1.08671698E+00 -6.19544299E-01  1.08671698E+00 -6.19544299E-01
  9.56718679E-17 -4.67396003E-16 -4.75799010E-16 -3.73804382E-02 -2.18816538E-16
  6.39436457E-17  7.37061726E-16 -7.08252621E-01  5.72685028E-16  2.60231494E-16
 -6.41249393E-16  8.80666428E-01  4.77888394E-16 -1.90265913E-16  1.21933106E+00
 -6.96123288E-01 -1.21933106E+00  6.96123288E-01  1.54189416E-16  3.31394088E-16
  1.98067978E-17 -5.31630969E-01  3.93897894E-16 -2.11789738E-15  9.70684440E-17
  1.84650475E+00  7.02189415E-16 -1.14781937E-16  7.77184746E-17 -3.68873890E-01
  4.79775628E-16  1.22530744E-16 -2.17462769E-01 -1.53930513E+00  2.17462769E-01
  1.53930513E+00 -9.70852153E-03 -1.45199034E+00 -3.74082030E-16 -3.00602965E-16
  2.25473471E-01  3.11415411E+00 -4.53591368E-16  1.46028970E-15 -1.17197327E+00
  4.36782995E-02 -2.44053114E-16 -4.36685269E-16 -3.30618455E-01  5.50434124E-18
 -5.65882864E-01 -9.72450955E-01 -5.65882864E-01 -9.72450955E-01
Total SCF Density                          R   N=         171
  2.09141526E+00 -1.87177501E-01  4.98804506E-01 -2.34368536E-16  7.95778023E-17
  7.69848021E-01 -7.33302361E-16  5.44480630E-16  3.52859676E-16  4.84318514E-01
 -1.44282544E-02  4.15442868E-02 -1.52199077E-17  2.02231185E-16  6.75879507E-01
 -3.66297570E-01  6.79943590E-01  5.63061451E-16 -1.93254658E-16 -3.54431957E-02
  2.01999331E+00 -3.61725444E-17 -2.84673226E-16  6.60409475E-01  2.87960677E-16
 -1.20336458E-16 -8.93247371E-16  5.66611652E-01  4.65841620E-16 -9.61297917E-16
  1.74776763E-16  3.00986773E-01  2.28245724E-15  1.39501051E-15  1.41512592E-16
  1.87626533E-01  7.46273466E-03  2.41351821E-02  4.18914489E-16  1.06285793E-16
  5.80953749E-01 -3.43805004E-01  5.30594584E-16  9.72322386E-16  5.81852923E-01
 -4.31924928E-05 -8.17078285E-04 -3.22952569E-18 -2.14940511E-16 -3.06583754E-02
  8.08812596E-03 -2.16715694E-18 -2.09511442E-16 -2.77152753E-02  1.42436587E-03
 -1.62756898E-17  1.05430043E-17 -2.92480170E-02 -6.69792741E-17  3.14532419E-17
  7.04568164E-17 -2.50597942E-02 -3.57906150E-17 -1.07176016E-17 -9.34787995E-19
  1.12230303E-03 -9.38638461E-17  4.80382662E-17  5.95920979E-18 -4.18061471E-02
 -1.16006785E-16 -5.72687834E-16  6.56792861E-18 -2.59892634E-02  1.09438421E-16
  2.01473937E-17  4.40958742E-18  3.60880492E-03  6.34699913E-03 -1.21484116E-02
  3.98992039E-18 -1.52975350E-16  1.22739723E-02 -1.73292948E-02  9.13940110E-18
 -1.43107524E-17  1.06202796E-02 -5.65634779E-04 -2.11385582E-19  8.38274992E-18
  5.86607025E-04 -4.96846716E-18  3.44203177E-18  6.82268707E-16  2.03869848E-17
  1.89367450E-17  7.21251865E-17  5.82360456E-16  1.45889133E-17 -3.04546323E-18
 -5.51474467E-19 -2.69867080E-17 -1.78730194E-18  1.92881159E-19  7.27346940E-31
 -2.86823519E-02  6.96563332E-02  1.95800476E-16  2.10476475E-01 -1.53844004E-01
 -3.91786443E-02  2.67416350E-16  1.30486141E-01 -9.13461086E-02  6.35543850E-03
 -4.76702356E-17 -1.81636796E-02 -5.15611794E-03 -4.70506000E-18  1.62765829E-01
  9.92992424E-02 -1.36193658E-01 -4.02758827E-16  1.56949807E-01  1.38619095E-01
 -1.19425331E+00  5.65943200E-16  9.56502815E-02  3.94379109E-01 -1.12954673E-02
 -8.13861102E-17 -1.35207664E-02  5.04814697E-03 -5.76760719E-17  1.59099041E-01
  1.03489998E+00 -2.86823519E-02  6.96563332E-02  6.89263160E-17 -2.10476475E-01
 -1.53844004E-01 -3.91786443E-02  1.73012612E-16 -1.30486141E-01 -9.13461086E-02
  6.35543850E-03  8.59294405E-18  1.81636796E-02 -5.15611794E-03 -2.03012596E-17
 -2.05243942E-02  2.05941534E-02  1.62765829E-01  9.92992424E-02 -1.36193658E-01
 -4.18073880E-16 -1.56949807E-01  1.38619095E-01 -1.19425331E+00  5.61796440E-16
 -9.56502815E-02  3.94379109E-01 -1.12954673E-02 -2.07984666E-17  1.35207664E-02
  5.04814697E-03 -5.82601139E-17  2.05941534E-02  9.20749199E-01  1.59099041E-01
  1.03489998E+00
Spin SCF Density                           R   N=         171
  8.36693581E-03 -1.46741242E-02  2.96600159E-02  7.83604505E-17 -2.81780302E-16
  8.29882171E-03  1.17980973E-16 -2.39772236E-16  4.19527284E-19 -3.28260552E-02
  2.58963386E-02 -5.67740866E-02 -1.52399845E-16  7.02632121E-17  7.50841523E-02
 -9.96599873E-02  1.34216890E-01 -2.53692372E-17 -2.92326247E-16 -2.54617199E-01