 Entering Gaussian System, Link 0=g16
 Initial command:
 /opt/g16/l1.exe "/scratch/1492/Gau-451343.inp" -scrdir="/scratch/1492/"
 Entering Link 1 = /opt/g16/l1.exe PID=    451344.
  
 Copyright (c) 1988-2017, Gaussian, Inc.  All Rights Reserved.
  
 This is part of the Gaussian(R) 16 program.  It is based on
 the Gaussian(R) 09 system (copyright 2009, Gaussian, Inc.),
 the Gaussian(R) 03 system (copyright 2003, Gaussian, Inc.),
 the Gaussian(R) 98 system (copyright 1998, Gaussian, Inc.),
 the Gaussian(R) 94 system (copyright 1995, Gaussian, Inc.),
 the Gaussian 92(TM) system (copyright 1992, Gaussian, Inc.),
 the Gaussian 90(TM) system (copyright 1990, Gaussian, Inc.),
 the Gaussian 88(TM) system (copyright 1988, Gaussian, Inc.),
 the Gaussian 86(TM) system (copyright 1986, Carnegie Mellon
 University), and the Gaussian 82(TM) system (copyright 1983,
 Carnegie Mellon University). Gaussian is a federally registered
 trademark of Gaussian, Inc.
  
 This software contains proprietary and confidential information,
 including trade secrets, belonging to Gaussian, Inc.
  
 This software is provided under written license and may be
 used, copied, transmitted, or stored only in accord with that
 written license.
  
 The following legend is applicable only to US Government
 contracts under FAR:
  
                    RESTRICTED RIGHTS LEGEND
  
 Use, reproduction and disclosure by the US Government is
 subject to restrictions as set forth in subparagraphs (a)
 and (c) of the Commercial Computer Software - Restricted
 Rights clause in FAR 52.227-19.
  
 Gaussian, Inc.
 340 Quinnipiac St., Bldg. 40, Wallingford CT 06492
  
  
 ---------------------------------------------------------------
 Warning -- This program may not be used in any manner that
 competes with the business of Gaussian, Inc. or will provide
 assistance to any competitor of Gaussian, Inc.  The licensee
 of this program is prohibited from giving any competitor of
 Gaussian, Inc. access to this program.  By using this program,
 the user acknowledges that Gaussian, Inc. is engaged in the
 business of creating and licensing software in the field of
 computational chemistry and represents and warrants to the
 licensee that it is not a competitor of Gaussian, Inc. and that
 it will not use this program in any manner prohibited above.
 ---------------------------------------------------------------
  

 Cite this work as:
 Gaussian 16, Revision B.01,
 M. J. Frisch, G. W. Trucks, H. B. Schlegel, G. E. Scuseria, 
 M. A. Robb, J. R. Cheeseman, G. Scalmani, V. Barone, 
 G. A. Petersson, H. Nakatsuji, X. Li, M. Caricato, A. V. Marenich, 
 J. Bloino, B. G. Janesko, R. Gomperts, B. Mennucci, H. P. Hratchian, 
 J. V. Ortiz, A. F. Izmaylov, J. L. Sonnenberg, D. Williams-Young, 
 F. Ding, F. Lipparini, F. Egidi, J. Goings, B. Peng, A. Petrone, 
 T. Henderson, D. Ranasinghe, V. G. Zakrzewski, J. Gao, N. Rega, 
 G. Zheng, W. Liang, M. Hada, M. Ehara, K. Toyota, R. Fukuda, 
 J. Hasegawa, M. Ishida, T. Nakajima, Y. Honda, O. Kitao, H. Nakai, 
 T. Vreven, K. Throssell, J. A. Montgomery, Jr., J. E. Peralta, 
 F. Ogliaro, M. J. Bearpark, J. J. Heyd, E. N. Brothers, K. N. Kudin, 
 V. N. Staroverov, T. A. Keith, R. Kobayashi, J. Normand, 
 K. Raghavachari, A. P. Rendell, J. C. Burant, S. S. Iyengar, 
 J. Tomasi, M. Cossi, J. M. Millam, M. Klene, C. Adamo, R. Cammi, 
 J. W. Ochterski, R. L. Martin, K. Morokuma, O. Farkas, 
 J. B. Foresman, and D. J. Fox, Gaussian, Inc., Wallingford CT, 2016.
 
 ******************************************
 Gaussian 16:  ES64L-G16RevB.01 20-Dec-2017
                 4-Feb-2021 
 ******************************************
 %chk=H2Onodiffmp2_N.chk
 %mem=32GB
 %nprocshared=16
 Will use up to   16 processors via shared memory.
 ----------------------------------------
 # MP2/6-31g(d) NoSymm 5D Density=Current
 ----------------------------------------
 1/30=1,38=1,172=1/1;
 2/12=2,15=1,17=6,18=5,40=1/2;
 3/5=1,6=6,7=1,8=1,11=9,25=1,30=1,71=1/1,2,3;
 4//1;
 5/5=2,38=5/2;
 8/6=4,10=2/1;
 9/15=1,16=-3/6;
 10/5=1,13=10,31=1/2;
 6/7=2,8=2,9=2,10=2,22=-1/1;
 99/5=1,9=1/99;
 ----------------------------------------------------------------------
 Calculo de punto sencillo de H2O a nivel de teoria MP2/6-31G(d), optim
 izada geometricamente a nivel de teoria B3LYP/6-311G(d,p)
 ----------------------------------------------------------------------
 Symbolic Z-matrix:
 Charge =  0 Multiplicity = 1
 O                     0.        0.        0.11867 
 H                     0.        0.75694  -0.47466 
 H                     0.       -0.75694  -0.47466 
 
                          Input orientation:                          
 ---------------------------------------------------------------------
 Center     Atomic      Atomic             Coordinates (Angstroms)
 Number     Number       Type             X           Y           Z
 ---------------------------------------------------------------------
      1          8           0        0.000000    0.000000    0.118665
      2          1           0        0.000000    0.756944   -0.474661
      3          1           0        0.000000   -0.756944   -0.474661
 ---------------------------------------------------------------------
                    Distance matrix (angstroms):
                    1          2          3
     1  O    0.000000
     2  H    0.961769   0.000000
     3  H    0.961769   1.513888   0.000000
 Symmetry turned off by external request.
 Stoichiometry    H2O
 Framework group  C2V[C2(O),SGV(H2)]
 Deg. of freedom     2
 Full point group                 C2V     NOp   4
 Rotational constants (GHZ):         801.9747679         437.5972249         283.1154099
 Standard basis: 6-31G(d) (5D, 7F)
    18 basis functions,    36 primitive gaussians,    19 cartesian basis functions
     5 alpha electrons        5 beta electrons
       nuclear repulsion energy         9.1529448664 Hartrees.
 NAtoms=    3 NActive=    3 NUniq=    3 SFac= 1.00D+00 NAtFMM=   60 NAOKFM=F Big=F
 Integral buffers will be    131072 words long.
 Raffenetti 1 integral format.
 Two-electron integral symmetry is turned off.
 One-electron integrals computed using PRISM.
 NBasis=    18 RedAO= T EigKep=  6.30D-02  NBF=    18
 NBsUse=    18 1.00D-06 EigRej= -1.00D+00 NBFU=    18
 ExpMin= 1.61D-01 ExpMax= 5.48D+03 ExpMxC= 8.25D+02 IAcc=3 IRadAn=         5 AccDes= 0.00D+00
 Harris functional with IExCor=  205 and IRadAn=       5 diagonalized for initial guess.
 HarFok:  IExCor=  205 AccDes= 0.00D+00 IRadAn=         5 IDoV= 1 UseB2=F ITyADJ=14
 ICtDFT=  3500011 ScaDFX=  1.000000  1.000000  1.000000  1.000000
 FoFCou: FMM=F IPFlag=           0 FMFlag=      100000 FMFlg1=           0
         NFxFlg=           0 DoJE=T BraDBF=F KetDBF=T FulRan=T
         wScrn=  0.000000 ICntrl=       500 IOpCl=  0 I1Cent=   200000004 NGrid=           0
         NMat0=    1 NMatS0=      1 NMatT0=    0 NMatD0=    1 NMtDS0=    0 NMtDT0=    0
 Symmetry not used in FoFCou.
 Keep R1 ints in memory in canonical form, NReq=3304514.
 Requested convergence on RMS density matrix=1.00D-08 within 128 cycles.
 Requested convergence on MAX density matrix=1.00D-06.
 Requested convergence on             energy=1.00D-06.
 No special actions if energy rises.
 SCF Done:  E(RHF) =  -76.0088774654     A.U. after   10 cycles
            NFock= 10  Conv=0.41D-08     -V/T= 2.0006
 ExpMin= 1.61D-01 ExpMax= 5.48D+03 ExpMxC= 8.25D+02 IAcc=3 IRadAn=         5 AccDes= 0.00D+00
 HarFok:  IExCor=  205 AccDes= 0.00D+00 IRadAn=         5 IDoV=-2 UseB2=F ITyADJ=14
 ICtDFT= 12500011 ScaDFX=  1.000000  1.000000  1.000000  1.000000
 Range of M.O.s used for correlation:     2    18
 NBasis=    18 NAE=     5 NBE=     5 NFC=     1 NFV=     0
 NROrb=     17 NOA=     4 NOB=     4 NVA=    13 NVB=    13
 Fully in-core method, ICMem=     6181529.
 JobTyp=1 Pass  1 fully in-core, NPsUse= 16.
 Spin components of T(2) and E(2):
     alpha-alpha T2 =       0.6207102388D-02 E2=     -0.2368626239D-01
     alpha-beta  T2 =       0.3671983305D-01 E2=     -0.1375977860D+00
     beta-beta   T2 =       0.6207102388D-02 E2=     -0.2368626239D-01
 ANorm=    0.1024272443D+01
 E2 =    -0.1849703107D+00 EUMP2 =    -0.76193847776158D+02
          Differentiating once with respect to electric field.
                with respect to dipole field.
          Electric field/nuclear overlap derivatives assumed to be zero.
 Keep R1 ints in memory in canonical form, NReq=3304954.
          There are     1 degrees of freedom in the 1st order CPHF.  IDoFFX=0 NUNeed=     1.
 LinEq1:  Iter=  0 NonCon=     1 RMS=6.21D-03 Max=2.40D-02 NDo=     1
 AX will form     1 AO Fock derivatives at one time.
 LinEq1:  Iter=  1 NonCon=     1 RMS=9.95D-04 Max=5.45D-03 NDo=     1
 LinEq1:  Iter=  2 NonCon=     1 RMS=3.96D-04 Max=1.95D-03 NDo=     1
 LinEq1:  Iter=  3 NonCon=     1 RMS=4.16D-05 Max=1.54D-04 NDo=     1
 LinEq1:  Iter=  4 NonCon=     1 RMS=8.15D-06 Max=3.16D-05 NDo=     1
 LinEq1:  Iter=  5 NonCon=     1 RMS=1.30D-06 Max=4.97D-06 NDo=     1
 LinEq1:  Iter=  6 NonCon=     1 RMS=1.01D-07 Max=4.43D-07 NDo=     1
 LinEq1:  Iter=  7 NonCon=     1 RMS=4.93D-09 Max=2.39D-08 NDo=     1
 LinEq1:  Iter=  8 NonCon=     1 RMS=4.61D-10 Max=1.72D-09 NDo=     1
 LinEq1:  Iter=  9 NonCon=     0 RMS=3.46D-11 Max=1.31D-10 NDo=     1
 Linear equations converged to 1.000D-10 1.000D-09 after     9 iterations.
 End of Minotr F.D. properties file   721 does not exist.
 End of Minotr F.D. properties file   722 does not exist.
 End of Minotr F.D. properties file   788 does not exist.

 **********************************************************************

            Population analysis using the MP2 Density.

 **********************************************************************

 Alpha  occ. eigenvalues --  -20.55615  -1.33960  -0.70294  -0.57157  -0.49755
 Alpha virt. eigenvalues --    0.21356   0.30322   1.01733   1.16229   1.16811
 Alpha virt. eigenvalues --    1.19841   1.37912   1.66049   2.01954   2.03518
 Alpha virt. eigenvalues --    2.06757   2.62472   2.93814
          Condensed to atoms (all electrons):
               1          2          3
     1  O    8.358003   0.249060   0.249060
     2  H    0.249060   0.348462  -0.025583
     3  H    0.249060  -0.025583   0.348462
 Mulliken charges:
               1
     1  O   -0.856123
     2  H    0.428061
     3  H    0.428061
 Sum of Mulliken charges =  -0.00000
 Mulliken charges with hydrogens summed into heavy atoms:
               1
     1  O   -0.000000
 Electronic spatial extent (au):  <R**2>=             19.2075
 Charge=             -0.0000 electrons
 Dipole moment (field-independent basis, Debye):
    X=             -0.0000    Y=             -0.0000    Z=             -2.1965  Tot=              2.1965
 Quadrupole moment (field-independent basis, Debye-Ang):
   XX=             -7.3342   YY=             -4.2518   ZZ=             -6.0391
   XY=              0.0000   XZ=             -0.0000   YZ=              0.0000
 Traceless Quadrupole moment (field-independent basis, Debye-Ang):
   XX=             -1.4592   YY=              1.6232   ZZ=             -0.1640
   XY=              0.0000   XZ=             -0.0000   YZ=              0.0000
 Octapole moment (field-independent basis, Debye-Ang**2):
  XXX=             -0.0000  YYY=             -0.0000  ZZZ=             -1.3756  XYY=             -0.0000
  XXY=             -0.0000  XXZ=             -0.3656  XZZ=             -0.0000  YZZ=             -0.0000
  YYZ=             -1.3243  XYZ=             -0.0000
 Hexadecapole moment (field-independent basis, Debye-Ang**3):
 XXXX=             -5.3905 YYYY=             -5.7850 ZZZZ=             -6.2412 XXXY=              0.0000
 XXXZ=             -0.0000 YYYX=              0.0000 YYYZ=              0.0000 ZZZX=             -0.0000
 ZZZY=              0.0000 XXYY=             -2.1134 XXZZ=             -1.9901 YYZZ=             -1.6714
 XXYZ=              0.0000 YYXZ=             -0.0000 ZZXY=              0.0000
 N-N= 9.152944866370D+00 E-N=-1.988633649730D+02  KE= 7.607371158976D+01
 1\1\GINC-N001\SP\RMP2-FC\6-31G(d)\H2O1\JORGE\04-Feb-2021\0\\# MP2/6-31
 g(d) NoSymm 5D Density=Current\\Calculo de punto sencillo de H2O a niv
 el de teoria MP2/6-31G(d), optimizada geometricamente a nivel de teori
 a B3LYP/6-311G(d,p)\\0,1\O,0,0.,0.,0.118665\H,0,0.,0.756944,-0.474661\
 H,0,0.,-0.756944,-0.474661\\Version=ES64L-G16RevB.01\HF=-76.0088775\MP
 2=-76.1938478\RMSD=4.123e-09\Dipole=0.,0.,-0.8641799\Quadrupole=-1.084
 88,1.2068346,-0.1219546,0.,0.,0.\PG=C02V [C2(O1),SGV(H2)]\\@


 IF AT FIRST YOU DON'T SUCCEED, TRY, TRY AGAIN.
 THEN GIVE UP;
 THERE'S NO USE BEING A DAMN FOOL ABOUT IT.

                                 -- W. C. FIELDS
 Job cpu time:       0 days  0 hours  0 minutes 17.0 seconds.
 Elapsed time:       0 days  0 hours  0 minutes  1.3 seconds.
 File lengths (MBytes):  RWF=      6 Int=      0 D2E=      0 Chk=      1 Scr=      1
 Normal termination of Gaussian 16 at Thu Feb  4 20:07:11 2021.
