Single point of SF6 at the CAM-B3LYP/6-31G(d) level of theory           
SP        RCAM-B3LYP                                                  6-31G(d)            
Number of atoms                            I                7
Info1-9                                    I   N=           9
          16          16           0           0           0         110
           1          18        4002
Full Title                                 C   N=           6
Single point of SF6 at the CAM-B3LYP/6-31G(d) level of theor
y           
Route                                      C   N=           3
# CAM-B3LYP/6-31g(d) NoSymm 5D      
Charge                                     I                0
Multiplicity                               I                1
Number of electrons                        I               70
Number of alpha electrons                  I               35
Number of beta electrons                   I               35
Number of basis functions                  I              102
Number of independent functions            I              102
Number of point charges in /Mol/           I                0
Number of translation vectors              I                0
Atomic numbers                             I   N=           7
          16           9           9           9           9           9
           9
Nuclear charges                            R   N=           7
  1.60000000E+01  9.00000000E+00  9.00000000E+00  9.00000000E+00  9.00000000E+00
  9.00000000E+00  9.00000000E+00
Current cartesian coordinates              R   N=          21
  0.00000000E+00  0.00000000E+00  0.00000000E+00  0.00000000E+00  0.00000000E+00
  3.02369786E+00  0.00000000E+00  3.02369786E+00  0.00000000E+00  0.00000000E+00
  0.00000000E+00 -3.02369786E+00  0.00000000E+00 -3.02369786E+00  0.00000000E+00
  3.02369786E+00  0.00000000E+00  0.00000000E+00 -3.02369786E+00  0.00000000E+00
  0.00000000E+00
Number of symbols in /Mol/                 I                0
Force Field                                I                0
Atom Types                                 C   N=           7
                                                            
                        
Int Atom Types                             I   N=           7
           0           0           0           0           0           0
           0
MM charges                                 R   N=           7
  0.00000000E+00  0.00000000E+00  0.00000000E+00  0.00000000E+00  0.00000000E+00
  0.00000000E+00  0.00000000E+00
Integer atomic weights                     I   N=           7
          32          19          19          19          19          19
          19
Real atomic weights                        R   N=           7
  3.19720718E+01  1.89984032E+01  1.89984032E+01  1.89984032E+01  1.89984032E+01
  1.89984032E+01  1.89984032E+01
Atom fragment info                         I   N=           7
           0           0           0           0           0           0
           0
Atom residue num                           I   N=           7
           0           0           0           0           0           0
           0
Nuclear spins                              I   N=           7
           0           1           1           1           1           1
           1
Nuclear ZEff                               R   N=           7
 -1.36000000E+01 -6.75000000E+00 -6.75000000E+00 -6.75000000E+00 -6.75000000E+00
 -6.75000000E+00 -6.75000000E+00
Nuclear ZNuc                               R   N=           7
  1.60000000E+01  9.00000000E+00  9.00000000E+00  9.00000000E+00  9.00000000E+00
  9.00000000E+00  9.00000000E+00
Nuclear QMom                               R   N=           7
  0.00000000E+00  0.00000000E+00  0.00000000E+00  0.00000000E+00  0.00000000E+00
  0.00000000E+00  0.00000000E+00
Nuclear GFac                               R   N=           7
  0.00000000E+00  2.62886700E+00  2.62886700E+00  2.62886700E+00  2.62886700E+00
  2.62886700E+00  2.62886700E+00
MicOpt                                     I   N=           7
          -1          -1          -1          -1          -1          -1
          -1
Number of residues                         I                0
Number of secondary structures             I                0
Number of contracted shells                I               29
Number of primitive shells                 I               83
Pure/Cartesian d shells                    I                0
Pure/Cartesian f shells                    I                0
Highest angular momentum                   I                2
Largest degree of contraction              I                6
Shell types                                I   N=          29
           0          -1          -1          -1          -2           0
          -1          -1          -2           0          -1          -1
          -2           0          -1          -1          -2           0
          -1          -1          -2           0          -1          -1
          -2           0          -1          -1          -2
Number of primitives per shell             I   N=          29
           6           6           3           1           1           6
           3           1           1           6           3           1
           1           6           3           1           1           6
           3           1           1           6           3           1
           1           6           3           1           1
Shell to atom map                          I   N=          29
           1           1           1           1           1           2
           2           2           2           3           3           3
           3           4           4           4           4           5
           5           5           5           6           6           6
           6           7           7           7           7
Primitive exponents                        R   N=          83
  2.19171000E+04  3.30149000E+03  7.54146000E+02  2.12711000E+02  6.79896000E+01
  2.30515000E+01  4.23735000E+02  1.00710000E+02  3.21599000E+01  1.18079000E+01
  4.63110000E+00  1.87025000E+00  2.61584000E+00  9.22167000E-01  3.41287000E-01
  1.17167000E-01  6.50000000E-01  7.00171309E+03  1.05136609E+03  2.39285690E+02
  6.73974453E+01  2.15199573E+01  7.40310130E+00  2.08479528E+01  4.80830834E+00
  1.34406986E+00  3.58151393E-01  8.00000000E-01  7.00171309E+03  1.05136609E+03
  2.39285690E+02  6.73974453E+01  2.15199573E+01  7.40310130E+00  2.08479528E+01
  4.80830834E+00  1.34406986E+00  3.58151393E-01  8.00000000E-01  7.00171309E+03
  1.05136609E+03  2.39285690E+02  6.73974453E+01  2.15199573E+01  7.40310130E+00
  2.08479528E+01  4.80830834E+00  1.34406986E+00  3.58151393E-01  8.00000000E-01
  7.00171309E+03  1.05136609E+03  2.39285690E+02  6.73974453E+01  2.15199573E+01
  7.40310130E+00  2.08479528E+01  4.80830834E+00  1.34406986E+00  3.58151393E-01
  8.00000000E-01  7.00171309E+03  1.05136609E+03  2.39285690E+02  6.73974453E+01
  2.15199573E+01  7.40310130E+00  2.08479528E+01  4.80830834E+00  1.34406986E+00
  3.58151393E-01  8.00000000E-01  7.00171309E+03  1.05136609E+03  2.39285690E+02
  6.73974453E+01  2.15199573E+01  7.40310130E+00  2.08479528E+01  4.80830834E+00
  1.34406986E+00  3.58151393E-01  8.00000000E-01
Contraction coefficients                   R   N=          83
  1.86924085E-03  1.42303065E-02  6.96962317E-02  2.38487108E-01  4.83307220E-01
  3.38074154E-01 -2.37677050E-03 -3.16930067E-02 -1.13317024E-01  5.60900118E-02
  5.92255124E-01  4.55006095E-01 -2.50373114E-01  6.69567631E-02  1.05450627E+00
  1.00000000E+00  1.00000000E+00  1.81961690E-03  1.39160796E-02  6.84053245E-02
  2.33185760E-01  4.71267439E-01  3.56618546E-01 -1.08506975E-01 -1.46451658E-01
  1.12868858E+00  1.00000000E+00  1.00000000E+00  1.81961690E-03  1.39160796E-02
  6.84053245E-02  2.33185760E-01  4.71267439E-01  3.56618546E-01 -1.08506975E-01
 -1.46451658E-01  1.12868858E+00  1.00000000E+00  1.00000000E+00  1.81961690E-03
  1.39160796E-02  6.84053245E-02  2.33185760E-01  4.71267439E-01  3.56618546E-01
 -1.08506975E-01 -1.46451658E-01  1.12868858E+00  1.00000000E+00  1.00000000E+00
  1.81961690E-03  1.39160796E-02  6.84053245E-02  2.33185760E-01  4.71267439E-01
  3.56618546E-01 -1.08506975E-01 -1.46451658E-01  1.12868858E+00  1.00000000E+00
  1.00000000E+00  1.81961690E-03  1.39160796E-02  6.84053245E-02  2.33185760E-01
  4.71267439E-01  3.56618546E-01 -1.08506975E-01 -1.46451658E-01  1.12868858E+00
  1.00000000E+00  1.00000000E+00  1.81961690E-03  1.39160796E-02  6.84053245E-02
  2.33185760E-01  4.71267439E-01  3.56618546E-01 -1.08506975E-01 -1.46451658E-01
  1.12868858E+00  1.00000000E+00  1.00000000E+00
P(S=P) Contraction coefficients            R   N=          83
  0.00000000E+00  0.00000000E+00  0.00000000E+00  0.00000000E+00  0.00000000E+00
  0.00000000E+00  4.06100998E-03  3.06812999E-02  1.30451999E-01  3.27204999E-01
  4.52850998E-01  2.56041999E-01 -1.45104895E-02  3.10262776E-01  7.54482456E-01
  1.00000000E+00  0.00000000E+00  0.00000000E+00  0.00000000E+00  0.00000000E+00
  0.00000000E+00  0.00000000E+00  0.00000000E+00  7.16287242E-02  3.45912103E-01
  7.22469956E-01  1.00000000E+00  0.00000000E+00  0.00000000E+00  0.00000000E+00
  0.00000000E+00  0.00000000E+00  0.00000000E+00  0.00000000E+00  7.16287242E-02
  3.45912103E-01  7.22469956E-01  1.00000000E+00  0.00000000E+00  0.00000000E+00
  0.00000000E+00  0.00000000E+00  0.00000000E+00  0.00000000E+00  0.00000000E+00
  7.16287242E-02  3.45912103E-01  7.22469956E-01  1.00000000E+00  0.00000000E+00
  0.00000000E+00  0.00000000E+00  0.00000000E+00  0.00000000E+00  0.00000000E+00
  0.00000000E+00  7.16287242E-02  3.45912103E-01  7.22469956E-01  1.00000000E+00
  0.00000000E+00  0.00000000E+00  0.00000000E+00  0.00000000E+00  0.00000000E+00
  0.00000000E+00  0.00000000E+00  7.16287242E-02  3.45912103E-01  7.22469956E-01
  1.00000000E+00  0.00000000E+00  0.00000000E+00  0.00000000E+00  0.00000000E+00
  0.00000000E+00  0.00000000E+00  0.00000000E+00  7.16287242E-02  3.45912103E-01
  7.22469956E-01  1.00000000E+00  0.00000000E+00
Coordinates of each shell                  R   N=          87
  0.00000000E+00  0.00000000E+00  0.00000000E+00  0.00000000E+00  0.00000000E+00
  0.00000000E+00  0.00000000E+00  0.00000000E+00  0.00000000E+00  0.00000000E+00
  0.00000000E+00  0.00000000E+00  0.00000000E+00  0.00000000E+00  0.00000000E+00
  0.00000000E+00  0.00000000E+00  3.02369786E+00  0.00000000E+00  0.00000000E+00
  3.02369786E+00  0.00000000E+00  0.00000000E+00  3.02369786E+00  0.00000000E+00
  0.00000000E+00  3.02369786E+00  0.00000000E+00  3.02369786E+00  0.00000000E+00
  0.00000000E+00  3.02369786E+00  0.00000000E+00  0.00000000E+00  3.02369786E+00
  0.00000000E+00  0.00000000E+00  3.02369786E+00  0.00000000E+00  0.00000000E+00
  0.00000000E+00 -3.02369786E+00  0.00000000E+00  0.00000000E+00 -3.02369786E+00
  0.00000000E+00  0.00000000E+00 -3.02369786E+00  0.00000000E+00  0.00000000E+00
 -3.02369786E+00  0.00000000E+00 -3.02369786E+00  0.00000000E+00  0.00000000E+00
 -3.02369786E+00  0.00000000E+00  0.00000000E+00 -3.02369786E+00  0.00000000E+00
  0.00000000E+00 -3.02369786E+00  0.00000000E+00  3.02369786E+00  0.00000000E+00
  0.00000000E+00  3.02369786E+00  0.00000000E+00  0.00000000E+00  3.02369786E+00
  0.00000000E+00  0.00000000E+00  3.02369786E+00  0.00000000E+00  0.00000000E+00
 -3.02369786E+00  0.00000000E+00  0.00000000E+00 -3.02369786E+00  0.00000000E+00
  0.00000000E+00 -3.02369786E+00  0.00000000E+00  0.00000000E+00 -3.02369786E+00
  0.00000000E+00  0.00000000E+00
Num ILSW                                   I              100
ILSW                                       I   N=         100
           0           0           0           0           2           0
           0           0           0           0       20419          -1
           5           0           0           0           0           0
           0           0           1           0           0           0
           1           1           0           0           0           0
           0           0      100000           0          -1           0
           0           0           0           0           0           0
           0           0           0           1           0           0
           0 -2000000000           1           0           0           0
           0           0           4          52           0           0
           0           0          40           0           0           0
           0           0           0           0           0           1
           0           0           0           0           0           0
           0           0           0           0           0           0
           0           0           0           0           0           0
           0           0           0           0           0           0
           0           0           0           0
Num RLSW                                   I               52
RLSW                                       R   N=          52
  1.00000000E+00  1.00000000E+00  1.00000000E+00  8.10000000E-01  1.00000000E+00
  0.00000000E+00  3.30000000E-01  1.90000000E-01  0.00000000E+00  4.60000000E-01
  0.00000000E+00  3.30000000E-01  1.90000000E-01  0.00000000E+00  4.60000000E-01
  0.00000000E+00  0.00000000E+00  1.00000000E+00  0.00000000E+00  0.00000000E+00
  0.00000000E+00  0.00000000E+00  1.00000000E+00  0.00000000E+00  0.00000000E+00
  0.00000000E+00  0.00000000E+00  1.00000000E+00  0.00000000E+00  0.00000000E+00
  0.00000000E+00  0.00000000E+00  1.00000000E+00  0.00000000E+00  0.00000000E+00
  0.00000000E+00  0.00000000E+00  0.00000000E+00  1.00000000E+00  1.00000000E+00
  0.00000000E+00  1.00000000E+00  0.00000000E+00  0.00000000E+00  0.00000000E+00
  0.00000000E+00  0.00000000E+00  0.00000000E+00  0.00000000E+00  0.00000000E+00
  0.00000000E+00  0.00000000E+00
MxBond                                     I                6
NBond                                      I   N=           7
           6           1           1           1           1           1
           1
IBond                                      I   N=          42
           2           3           4           5           6           7
           1           0           0           0           0           0
           1           0           0           0           0           0
           1           0           0           0           0           0
           1           0           0           0           0           0
           1           0           0           0           0           0
           1           0           0           0           0           0
RBond                                      R   N=          42
  1.00000000E+00  1.00000000E+00  1.00000000E+00  1.00000000E+00  1.00000000E+00
  1.00000000E+00  1.00000000E+00  0.00000000E+00  0.00000000E+00  0.00000000E+00
  0.00000000E+00  0.00000000E+00  1.00000000E+00  0.00000000E+00  0.00000000E+00
  0.00000000E+00  0.00000000E+00  0.00000000E+00  1.00000000E+00  0.00000000E+00
  0.00000000E+00  0.00000000E+00  0.00000000E+00  0.00000000E+00  1.00000000E+00
  0.00000000E+00  0.00000000E+00  0.00000000E+00  0.00000000E+00  0.00000000E+00
  1.00000000E+00  0.00000000E+00  0.00000000E+00  0.00000000E+00  0.00000000E+00
  0.00000000E+00  1.00000000E+00  0.00000000E+00  0.00000000E+00  0.00000000E+00
  0.00000000E+00  0.00000000E+00
Virial Ratio                               R      2.004482163433879E+00
SCF Energy                                 R     -9.969767263416476E+02
Total Energy                               R     -9.969767263416476E+02
RMS Density                                R      7.927227625617307E-09
Job Status                                 I                1
Nuclear derivative order                   I                0
External E-field                           R   N=          35
  0.00000000E+00  0.00000000E+00  0.00000000E+00  0.00000000E+00  0.00000000E+00
  0.00000000E+00  0.00000000E+00  0.00000000E+00  0.00000000E+00  0.00000000E+00
  0.00000000E+00  0.00000000E+00  0.00000000E+00  0.00000000E+00  0.00000000E+00
  0.00000000E+00  0.00000000E+00  0.00000000E+00  0.00000000E+00  0.00000000E+00
  0.00000000E+00  0.00000000E+00  0.00000000E+00  0.00000000E+00  0.00000000E+00
  0.00000000E+00  0.00000000E+00  0.00000000E+00  0.00000000E+00  0.00000000E+00
  0.00000000E+00  0.00000000E+00  0.00000000E+00  0.00000000E+00  0.00000000E+00
IOpCl                                      I                0
IROHF                                      I                0
Alpha Orbital Energies                     R   N=         102
 -8.94157862E+01 -2.48364683E+01 -2.48364318E+01 -2.48364318E+01 -2.48364318E+01
 -2.48363598E+01 -2.48363598E+01 -8.41675872E+00 -6.38438476E+00 -6.38438476E+00
 -6.38438476E+00 -1.47423081E+00 -1.35502501E+00 -1.35502501E+00 -1.35502501E+00
 -1.30716919E+00 -1.30716919E+00 -8.99107295E-01 -7.36170667E-01 -7.36170667E-01
 -7.36170667E-01 -6.23741448E-01 -6.23741448E-01 -6.23741448E-01 -5.86645415E-01
 -5.86645415E-01 -5.39166377E-01 -5.39166377E-01 -5.39166377E-01 -5.36442592E-01
 -5.36442592E-01 -5.36442592E-01 -4.97644427E-01 -4.97644427E-01 -4.97644427E-01
 -2.95158872E-02  1.54987398E-01  1.54987398E-01  1.54987398E-01  3.30739230E-01
  3.80592678E-01  3.80592678E-01  3.80592678E-01  5.45218390E-01  5.45218390E-01
  5.45218390E-01  9.68640395E-01  9.68640395E-01  1.12308970E+00  1.12308970E+00
  1.12308970E+00  1.20216056E+00  1.20236211E+00  1.20236211E+00  1.20236211E+00
  1.21829277E+00  1.21829277E+00  1.21829277E+00  1.26916870E+00  1.26916870E+00
  1.43739590E+00  1.43739590E+00  1.43739590E+00  1.54781380E+00  1.54781380E+00
  1.54781380E+00  1.55014048E+00  1.55014048E+00  1.71343709E+00  1.71343709E+00
  1.71343709E+00  1.74949000E+00  1.85559283E+00  1.85559283E+00  1.85559283E+00
  1.88573309E+00  1.88573309E+00  1.97374802E+00  1.97374802E+00  1.98980955E+00
  2.03212582E+00  2.03212582E+00  2.03212582E+00  2.04732041E+00  2.04732041E+00
  2.04732041E+00  2.08636166E+00  2.08636166E+00  2.08636166E+00  2.11560763E+00
  2.11560763E+00  2.11560763E+00  2.21559194E+00  2.21559194E+00  2.21559194E+00
  2.39997237E+00  2.56953572E+00  2.56953572E+00  2.56953572E+00  2.58626420E+00
  3.09122003E+00  3.09122003E+00
Alpha MO coefficients                      R   N=       10404
  9.96584680E-01  1.27672564E-02  5.46999742E-16 -2.05838011E-16 -1.54117996E-16
 -5.64787248E-03 -5.75068898E-16  6.14768660E-16 -1.06958361E-16 -1.17901150E-03
  2.74238164E-15 -1.90883093E-15  5.65137379E-16  5.66286402E-16 -5.98805765E-17
  1.90528266E-16 -1.69701049E-16 -4.51861237E-17 -2.77711977E-05 -5.18134217E-04
  3.76794975E-16 -2.72685963E-16  1.23927554E-04  1.32512227E-03 -7.78420140E-16
  3.56440172E-16 -1.02118820E-03  5.35171627E-04  1.76687265E-16 -2.80238301E-16
 -2.66831094E-16 -2.78185701E-17 -2.77711977E-05 -5.18134217E-04  2.39751454E-16
  1.23927554E-04 -7.66842081E-17  1.32512227E-03 -5.02304557E-16 -1.02118820E-03
 -1.09592541E-16 -2.67585813E-04 -4.53571652E-17  1.98574588E-16 -4.63472224E-04
  2.59694066E-16 -2.77711977E-05 -5.18134217E-04  6.97864139E-17 -2.46192812E-16
 -1.23927554E-04  1.32512227E-03 -5.22422147E-16  6.95520199E-16  1.02118820E-03
  5.35171627E-04  4.41207437E-18  1.55250304E-16  3.08517360E-16 -1.10336543E-16
 -2.77711977E-05 -5.18134217E-04  3.06804640E-16 -1.23927554E-04  5.58148766E-17
  1.32512227E-03 -9.85276742E-16  1.02118820E-03 -1.37333817E-16 -2.67585813E-04
  2.08765355E-16 -2.45828141E-16 -4.63472224E-04 -3.18225531E-16 -2.77711977E-05
 -5.18134217E-04  1.23927554E-04 -1.67446594E-16 -1.10301867E-16  1.32512227E-03
 -1.02118820E-03  5.33094811E-16  1.49884962E-16 -2.67585813E-04 -1.37140066E-16
  1.46785977E-17  4.63472224E-04 -1.87206748E-16 -2.77711977E-05 -5.18134217E-04
 -1.23927554E-04 -3.70614961E-16 -7.26014122E-17  1.32512227E-03  1.02118820E-03
  5.49831592E-16 -1.21034826E-16 -2.67585813E-04  1.04128473E-16 -1.15727861E-16
  4.63472224E-04  1.82416910E-16  4.05052613E-05 -1.24665294E-03 -1.48977535E-13
  6.07638699E-13  1.89962787E-13 -2.22016329E-03  9.23340295E-13 -3.74936210E-12
 -1.17098391E-12  1.81965354E-02  2.98308749E-12 -1.20810162E-11 -3.77314228E-12
 -3.60736565E-13 -3.89944911E-16  7.80826622E-16  6.44480101E-13  2.47358041E-16
  4.06237521E-01  1.19964104E-02  5.09896750E-14 -2.06197535E-13 -4.73126066E-04
 -8.42555536E-03 -4.21124126E-13  1.70493593E-12  2.04371126E-03 -1.89204785E-04
  6.97566499E-14 -2.84594227E-13  7.91430519E-14 -1.12944428E-16  4.06237520E-01
  1.19964103E-02  5.07298137E-14 -4.73126065E-04 -6.39806993E-14 -8.42555534E-03
 -4.20418148E-13  2.04371126E-03  5.31825531E-13  9.46023921E-05 -1.27806843E-16
 -8.81768291E-14  1.63856150E-04  6.97010394E-14  4.06237521E-01  1.19964104E-02
  5.09637204E-14 -2.05461760E-13  4.73126067E-04 -8.42555537E-03 -4.20882300E-13
  1.70407186E-12 -2.04371126E-03 -1.89204785E-04 -6.99064212E-14  2.85277893E-13
  7.92697185E-14  3.20475537E-17  4.06237522E-01  1.19964104E-02  5.07122645E-14
  4.73126068E-04 -6.45293317E-14 -8.42555538E-03 -4.20505987E-13 -2.04371126E-03
  5.32307306E-13  9.46023927E-05  3.76225865E-16  8.96628039E-14  1.63856151E-04
 -6.97116212E-14  4.06237522E-01  1.19964104E-02 -4.73126067E-04 -2.05756135E-13
 -6.43519301E-14 -8.42555537E-03  2.04371126E-03  1.70439375E-12  5.32294358E-13
  9.46023927E-05 -8.91017377E-14 -1.02585760E-16 -1.63856151E-04 -2.84303840E-13
  4.06237521E-01  1.19964104E-02  4.73126067E-04 -2.05815020E-13 -6.41735028E-14
 -8.42555536E-03 -2.04371126E-03  1.70425126E-12  5.32049679E-13  9.46023925E-05
  8.88421622E-14 -9.66816783E-17 -1.63856150E-04  2.84072077E-13 -4.73723491E-14
  1.45601518E-12 -3.00852930E-04  1.98706720E-04 -5.50504674E-05  2.59347470E-12
  1.85775036E-03 -1.22700311E-03  3.39933620E-04 -2.12482336E-11  5.98087041E-03
 -3.95023290E-03  1.09438759E-03  4.93349256E-13 -4.44000742E-17  4.36638357E-16
 -2.68154011E-13  7.54976044E-17  1.06192154E-01  2.99228057E-03  1.01734724E-04
 -6.71935395E-05 -1.35869475E-04 -1.64803722E-03 -8.43516909E-04  5.57124302E-04
  3.54558510E-04 -5.74817520E-05  1.40774841E-04 -9.29786756E-05 -3.28814169E-14
  2.72673946E-16 -3.83304553E-01 -1.08007486E-02  1.01734724E-04  4.90425949E-04
  1.86155544E-05  5.94865199E-03 -8.43516909E-04 -1.27979221E-03 -1.54347841E-04
 -1.03741267E-04 -4.71056218E-16  2.57591668E-05 -1.79685145E-04  1.40774841E-04
 -1.06192155E-01 -2.99228059E-03  1.01734724E-04 -6.71935395E-05 -1.35869475E-04
  1.64803724E-03 -8.43516909E-04  5.57124302E-04  3.54558514E-04  5.74817522E-05
 -1.40774841E-04  9.29786756E-05 -3.26213139E-14 -4.68430067E-16  3.83304552E-01
  1.08007486E-02  1.01734724E-04  4.90425948E-04  1.86155544E-05 -5.94865197E-03
 -8.43516909E-04 -1.27979220E-03 -1.54347841E-04  1.03741267E-04 -4.58629587E-16
 -2.57591668E-05  1.79685144E-04 -1.40774841E-04  5.80344225E-01  1.63529289E-02
 -7.42531925E-04 -6.71935395E-05  1.86155544E-05 -9.00658707E-03  1.93767595E-03
  5.57124302E-04 -1.54347841E-04  1.57069997E-04  2.57591668E-05 -1.31770791E-16
 -2.72053215E-04 -9.29786756E-05 -5.80344226E-01 -1.63529289E-02 -7.42531927E-04
 -6.71935395E-05  1.86155544E-05  9.00658709E-03  1.93767596E-03  5.57124302E-04
 -1.54347841E-04 -1.57069997E-04 -2.57591668E-05 -1.59075391E-16  2.72053216E-04
  9.29786756E-05  5.44414142E-14 -1.67864996E-12 -1.66757750E-04 -2.91755942E-04
 -1.41766437E-04 -2.99016330E-12  1.02971997E-03  1.80157696E-03  8.75399982E-04
  2.45018616E-11  3.31509650E-03  5.80002489E-03  2.81827632E-03  2.44551439E-13
 -9.57872304E-16 -1.77833674E-16  3.36923581E-13 -4.14857073E-16  2.73466951E-01
  7.70574672E-03  5.63898568E-05  9.86585378E-05 -3.49892241E-04 -4.24403966E-03
 -4.67547324E-04 -8.18011215E-04  9.13062133E-04 -1.48027503E-04  7.80291415E-05
  1.36518187E-04  4.17601454E-14  2.90890274E-16  5.62796170E-01  1.58584601E-02
  5.63898568E-05 -7.20079748E-04  4.79389358E-05 -8.73425200E-03 -4.67547324E-04
  1.87908583E-03 -3.97477887E-04  1.52320621E-04  2.54466451E-16  6.63352279E-05
  2.63827055E-04  7.80291415E-05 -2.73466950E-01 -7.70574668E-03  5.63898568E-05
  9.86585378E-05 -3.49892240E-04  4.24403963E-03 -4.67547324E-04 -8.18011215E-04
  9.13062127E-04  1.48027502E-04 -7.80291415E-05 -1.36518187E-04  4.10316753E-14
 -6.85792682E-17 -5.62796169E-01 -1.58584601E-02  5.63898568E-05 -7.20079747E-04
  4.79389358E-05  8.73425198E-03 -4.67547324E-04  1.87908582E-03 -3.97477887E-04
 -1.52320621E-04 -2.28857281E-16 -6.63352279E-05 -2.63827054E-04 -7.80291415E-05
  3.21675105E-01  9.06415518E-03 -4.11573036E-04  9.86585378E-05  4.79389358E-05
 -4.99220069E-03  1.07402140E-03 -8.18011215E-04 -3.97477887E-04  8.70612743E-05
  6.63352279E-05  2.69560518E-16 -1.50794550E-04  1.36518187E-04 -3.21675103E-01
 -9.06415515E-03 -4.11573035E-04  9.86585378E-05  4.79389358E-05  4.99220066E-03
  1.07402139E-03 -8.18011215E-04 -3.97477887E-04 -8.70612739E-05 -6.63352279E-05
 -2.93702442E-16  1.50794550E-04 -1.36518187E-04  7.64043038E-15 -2.37049041E-13
  1.21271461E-04  9.17687822E-05 -3.31510367E-04 -4.22806075E-13 -7.48844628E-04
 -5.66667202E-04  2.04705835E-03  3.46584391E-12 -2.41084205E-03 -1.82433721E-03
  6.59033151E-03 -4.23529776E-14  5.98509067E-16 -2.11014794E-16 -8.44197250E-13
 -2.07084035E-16  6.39482312E-01  1.80193208E-02 -4.10084707E-05 -3.10320119E-05
 -8.18197221E-04 -9.92437397E-03  3.40015064E-04  2.57296878E-04  2.13512851E-03
 -3.46151407E-04 -5.67452366E-05 -4.29403688E-05 -1.03319552E-13 -1.20331940E-16
 -1.77021653E-01 -4.98811287E-03 -4.10084707E-05  2.26493558E-04  1.12101669E-04
  2.74726767E-03  3.40015064E-04 -5.91046804E-04 -9.29472750E-04 -4.79108591E-05
 -4.96461642E-16  1.55120042E-04 -8.29840423E-05 -5.67452366E-05 -6.39482312E-01
 -1.80193208E-02 -4.10084707E-05 -3.10320119E-05 -8.18197221E-04  9.92437397E-03
  3.40015064E-04  2.57296878E-04  2.13512851E-03  3.46151407E-04  5.67452366E-05
  4.29403688E-05 -1.03383784E-13 -1.06832263E-16  1.77021653E-01  4.98811289E-03
 -4.10084707E-05  2.26493559E-04  1.12101669E-04 -2.74726768E-03  3.40015064E-04
 -5.91046806E-04 -9.29472750E-04  4.79108594E-05  2.25446430E-16 -1.55120042E-04
  8.29840427E-05  5.67452366E-05 -2.33932215E-01 -6.59173765E-03  2.99308807E-04
 -3.10320119E-05  1.12101669E-04  3.63048475E-03 -7.81062012E-04  2.57296878E-04
 -9.29472750E-04 -6.33136866E-05  1.55120042E-04 -8.81790061E-16  1.09662522E-04
 -4.29403688E-05  2.33932215E-01  6.59173764E-03  2.99308807E-04 -3.10320119E-05
  1.12101669E-04 -3.63048475E-03 -7.81062011E-04  2.57296878E-04 -9.29472750E-04
  6.33136863E-05 -1.55120042E-04  2.58348375E-16 -1.09662522E-04  4.29403688E-05
  8.69078456E-15 -2.64452107E-13  9.13747234E-14 -2.25092963E-14  3.71493504E-14
 -4.68217826E-13 -5.62621218E-13  1.40488713E-13 -2.25196741E-13  3.85098391E-12
 -1.80907175E-12  4.54923614E-13 -7.21377513E-13  2.01565471E-03 -2.96681250E-16
 -1.57406380E-16 -2.14060677E-04 -4.31008733E-16  5.71207794E-01  1.52508598E-02
 -3.06857947E-14  7.92941588E-15 -8.56394756E-04 -5.55855208E-03  2.54967987E-13
 -6.39664881E-14  1.76344438E-03 -6.39348729E-04 -4.23697873E-14  1.08674210E-14
 -2.63048238E-05  3.53889138E-17 -2.33069287E-01 -6.22279153E-03 -3.02871159E-14
  3.49433809E-04 -1.24420937E-14  2.26804988E-03  2.54566924E-13 -7.19536268E-04
  1.01788539E-13  6.67240827E-05 -7.14499614E-18 -1.73769453E-14 -3.39753081E-04
 -4.28362850E-14  5.71207794E-01  1.52508598E-02 -3.06610216E-14  7.38293570E-15
  8.56394756E-04 -5.55855208E-03  2.54972703E-13 -6.39620682E-14 -1.76344438E-03
 -6.39348729E-04  4.25039158E-14 -1.04418223E-14 -2.63048238E-05  2.36483210E-16
 -2.33069287E-01 -6.22279153E-03 -3.07816663E-14 -3.49433809E-04 -1.23165359E-14
  2.26804988E-03  2.54809980E-13  7.19536269E-04  1.01670196E-13  6.67240827E-05
  4.48139602E-17  1.68987356E-14 -3.39753081E-04  4.27542358E-14 -3.38138507E-01
 -9.02806828E-03  5.06960947E-04  7.62715145E-15 -1.26409433E-14  3.29050219E-03
 -1.04390811E-03 -6.40942128E-14  1.01997165E-13 -1.48581697E-05 -1.72957787E-14
 -8.23880952E-17  4.28448039E-04  1.08218095E-14 -3.38138507E-01 -9.02806827E-03
 -5.06960947E-04  7.69838073E-15 -1.21540312E-14  3.29050219E-03  1.04390811E-03
 -6.41402937E-14  1.01513459E-13 -1.48581696E-05  1.69755464E-14  1.07874736E-16
  4.28448039E-04 -1.05914912E-14  1.17642404E-14 -3.70783047E-13 -4.82566783E-14
 -1.10969112E-13  1.19077307E-13 -6.59706929E-13  2.96906051E-13  6.85550119E-13
 -7.31372282E-13  5.41312030E-12  9.58579423E-13  2.20621946E-12 -2.35284825E-12
 -2.14060677E-04 -5.60237739E-16  7.71758822E-16 -2.01565471E-03  4.64099588E-16
 -6.06617424E-02 -1.61962729E-03  1.65912989E-14  3.73077780E-14  9.09483355E-05
  5.90313119E-04 -1.34901351E-13 -3.11213551E-13 -1.87276171E-04  6.78982470E-05
  2.16611870E-14  5.18314007E-14 -2.47693518E-04 -1.26232980E-16  5.25011332E-01
  1.40174457E-02  1.65194492E-14 -7.87133783E-04 -3.99792507E-14 -5.10900387E-03
 -1.35170479E-13  1.62082572E-03  3.31655977E-13  3.81346504E-04 -6.35631723E-16
 -5.45126196E-14  4.58379293E-04  2.25265979E-14 -6.06617420E-02 -1.61962727E-03
  1.64804554E-14  3.72493783E-14 -9.09483349E-05  5.90313111E-04 -1.35496034E-13
 -3.11145085E-13  1.87276170E-04  6.78982467E-05 -2.23347931E-14 -5.11874413E-14
 -2.47693518E-04  2.45522888E-16  5.25011331E-01  1.40174457E-02  1.64335935E-14
  7.87133782E-04 -3.94270035E-14 -5.10900386E-03 -1.35153494E-13 -1.62082572E-03
  3.31616470E-13  3.81346504E-04  6.35106520E-16  5.56644900E-14  4.58379293E-04
 -2.22498927E-14 -4.64349589E-01 -1.23978184E-02  6.96185447E-04  3.76931015E-14
 -3.98911503E-14  4.51869074E-03 -1.43354955E-03 -3.11431744E-13  3.31677993E-13
 -3.86854616E-04 -5.49664829E-14 -4.34501622E-16  3.76797041E-04  5.21991199E-14
 -4.64349589E-01 -1.23978184E-02 -6.96185447E-04  3.75783119E-14 -3.96891532E-14
  4.51869075E-03  1.43354955E-03 -3.11436419E-13  3.31608522E-13 -3.86854616E-04
  5.50771512E-14  4.16431204E-16  3.76797041E-04 -5.16170332E-14 -2.80652549E-01