 Entering Gaussian System, Link 0=g16
 Initial command:
 /opt/g16/l1.exe "/scratch/1487/Gau-450043.inp" -scrdir="/scratch/1487/"
 Entering Link 1 = /opt/g16/l1.exe PID=    450044.
  
 Copyright (c) 1988-2017, Gaussian, Inc.  All Rights Reserved.
  
 This is part of the Gaussian(R) 16 program.  It is based on
 the Gaussian(R) 09 system (copyright 2009, Gaussian, Inc.),
 the Gaussian(R) 03 system (copyright 2003, Gaussian, Inc.),
 the Gaussian(R) 98 system (copyright 1998, Gaussian, Inc.),
 the Gaussian(R) 94 system (copyright 1995, Gaussian, Inc.),
 the Gaussian 92(TM) system (copyright 1992, Gaussian, Inc.),
 the Gaussian 90(TM) system (copyright 1990, Gaussian, Inc.),
 the Gaussian 88(TM) system (copyright 1988, Gaussian, Inc.),
 the Gaussian 86(TM) system (copyright 1986, Carnegie Mellon
 University), and the Gaussian 82(TM) system (copyright 1983,
 Carnegie Mellon University). Gaussian is a federally registered
 trademark of Gaussian, Inc.
  
 This software contains proprietary and confidential information,
 including trade secrets, belonging to Gaussian, Inc.
  
 This software is provided under written license and may be
 used, copied, transmitted, or stored only in accord with that
 written license.
  
 The following legend is applicable only to US Government
 contracts under FAR:
  
                    RESTRICTED RIGHTS LEGEND
  
 Use, reproduction and disclosure by the US Government is
 subject to restrictions as set forth in subparagraphs (a)
 and (c) of the Commercial Computer Software - Restricted
 Rights clause in FAR 52.227-19.
  
 Gaussian, Inc.
 340 Quinnipiac St., Bldg. 40, Wallingford CT 06492
  
  
 ---------------------------------------------------------------
 Warning -- This program may not be used in any manner that
 competes with the business of Gaussian, Inc. or will provide
 assistance to any competitor of Gaussian, Inc.  The licensee
 of this program is prohibited from giving any competitor of
 Gaussian, Inc. access to this program.  By using this program,
 the user acknowledges that Gaussian, Inc. is engaged in the
 business of creating and licensing software in the field of
 computational chemistry and represents and warrants to the
 licensee that it is not a competitor of Gaussian, Inc. and that
 it will not use this program in any manner prohibited above.
 ---------------------------------------------------------------
  

 Cite this work as:
 Gaussian 16, Revision B.01,
 M. J. Frisch, G. W. Trucks, H. B. Schlegel, G. E. Scuseria, 
 M. A. Robb, J. R. Cheeseman, G. Scalmani, V. Barone, 
 G. A. Petersson, H. Nakatsuji, X. Li, M. Caricato, A. V. Marenich, 
 J. Bloino, B. G. Janesko, R. Gomperts, B. Mennucci, H. P. Hratchian, 
 J. V. Ortiz, A. F. Izmaylov, J. L. Sonnenberg, D. Williams-Young, 
 F. Ding, F. Lipparini, F. Egidi, J. Goings, B. Peng, A. Petrone, 
 T. Henderson, D. Ranasinghe, V. G. Zakrzewski, J. Gao, N. Rega, 
 G. Zheng, W. Liang, M. Hada, M. Ehara, K. Toyota, R. Fukuda, 
 J. Hasegawa, M. Ishida, T. Nakajima, Y. Honda, O. Kitao, H. Nakai, 
 T. Vreven, K. Throssell, J. A. Montgomery, Jr., J. E. Peralta, 
 F. Ogliaro, M. J. Bearpark, J. J. Heyd, E. N. Brothers, K. N. Kudin, 
 V. N. Staroverov, T. A. Keith, R. Kobayashi, J. Normand, 
 K. Raghavachari, A. P. Rendell, J. C. Burant, S. S. Iyengar, 
 J. Tomasi, M. Cossi, J. M. Millam, M. Klene, C. Adamo, R. Cammi, 
 J. W. Ochterski, R. L. Martin, K. Morokuma, O. Farkas, 
 J. B. Foresman, and D. J. Fox, Gaussian, Inc., Wallingford CT, 2016.
 
 ******************************************
 Gaussian 16:  ES64L-G16RevB.01 20-Dec-2017
                 4-Feb-2021 
 ******************************************
 %chk=SF6camb3lyp_N-3.chk
 %mem=32GB
 %nprocshared=16
 Will use up to   16 processors via shared memory.
 -------------------------------
 # UCAM-B3LYP/6-31g(d) NoSymm 5D
 -------------------------------
 1/38=1,172=1/1;
 2/12=2,15=1,17=6,18=5,40=1/2;
 3/5=1,6=6,7=1,8=1,11=2,25=1,30=1,74=-40,116=2/1,2,3;
 4//1;
 5/5=2,38=5/2;
 6/7=2,8=2,9=2,10=2,28=1/1;
 99/5=1,9=1/99;
 -----------------------------------------------------------------
 Single point of SF6^+3 at the UCAM-B3LYP/6-31G(d) level of theory
 -----------------------------------------------------------------
 Symbolic Z-matrix:
 Charge =  3 Multiplicity = 4
 S                     0.        0.        0. 
 F                     0.        0.        1.60007 
 F                     0.        1.60007   0. 
 F                     0.        0.       -1.60007 
 F                     0.       -1.60007   0. 
 F                     1.60007   0.        0. 
 F                    -1.60007   0.        0. 
 
                          Input orientation:                          
 ---------------------------------------------------------------------
 Center     Atomic      Atomic             Coordinates (Angstroms)
 Number     Number       Type             X           Y           Z
 ---------------------------------------------------------------------
      1         16           0        0.000000    0.000000    0.000000
      2          9           0        0.000000    0.000000    1.600072
      3          9           0        0.000000    1.600072    0.000000
      4          9           0        0.000000    0.000000   -1.600072
      5          9           0        0.000000   -1.600072    0.000000
      6          9           0        1.600072    0.000000    0.000000
      7          9           0       -1.600072    0.000000    0.000000
 ---------------------------------------------------------------------
                    Distance matrix (angstroms):
                    1          2          3          4          5
     1  S    0.000000
     2  F    1.600072   0.000000
     3  F    1.600072   2.262844   0.000000
     4  F    1.600072   3.200144   2.262844   0.000000
     5  F    1.600072   2.262844   3.200144   2.262844   0.000000
     6  F    1.600072   2.262844   2.262844   2.262844   2.262844
     7  F    1.600072   2.262844   2.262844   2.262844   2.262844
                    6          7
     6  F    0.000000
     7  F    3.200144   0.000000
 Symmetry turned off by external request.
 Stoichiometry    F6S(3+,4)
 Framework group  OH[O(S),3C4(F.F)]
 Deg. of freedom     1
 Full point group                 OH      NOp  48
 Rotational constants (GHZ):           2.5975329           2.5975329           2.5975329
 Standard basis: 6-31G(d) (5D, 7F)
   102 basis functions,   220 primitive gaussians,   109 cartesian basis functions
    35 alpha electrons       32 beta electrons
       nuclear repulsion energy       553.2324554223 Hartrees.
 NAtoms=    7 NActive=    7 NUniq=    7 SFac= 1.00D+00 NAtFMM=   60 NAOKFM=F Big=F
 Integral buffers will be    131072 words long.
 Raffenetti 2 integral format.
 Two-electron integral symmetry is turned off.
 One-electron integrals computed using PRISM.
 NBasis=   102 RedAO= T EigKep=  1.70D-02  NBF=   102
 NBsUse=   102 1.00D-06 EigRej= -1.00D+00 NBFU=   102
 ExpMin= 1.17D-01 ExpMax= 2.19D+04 ExpMxC= 3.30D+03 IAcc=3 IRadAn=         5 AccDes= 0.00D+00
 Harris functional with IExCor=20419 and IRadAn=       5 diagonalized for initial guess.
 HarFok:  IExCor=20419 AccDes= 0.00D+00 IRadAn=         5 IDoV= 1 UseB2=F ITyADJ=14
 ICtDFT=  3500011 ScaDFX=  1.000000  1.000000  1.000000  1.000000
 FoFCou: FMM=F IPFlag=           0 FMFlag=      100000 FMFlg1=           0
         NFxFlg=           0 DoJE=T BraDBF=F KetDBF=T FulRan=T
         wScrn=  0.000000 ICntrl=       500 IOpCl=  0 I1Cent=   200000004 NGrid=           0
         NMat0=    1 NMatS0=      1 NMatT0=    0 NMatD0=    1 NMtDS0=    0 NMtDT0=    0
 Symmetry not used in FoFCou.
 Initial guess <Sx>= 0.0000 <Sy>= 0.0000 <Sz>= 1.5000 <S**2>= 3.7500 S= 1.5000
 Keep R1 and R2 ints in memory in canonical form, NReq=70155054.
 Requested convergence on RMS density matrix=1.00D-08 within 128 cycles.
 Requested convergence on MAX density matrix=1.00D-06.
 Requested convergence on             energy=1.00D-06.
 No special actions if energy rises.
 Integral accuracy reduced to 1.0D-05 until final iterations.
 Initial convergence to 1.0D-05 achieved.  Increase integral accuracy.
 SCF Done:  E(UCAM-B3LYP) =  -994.495707087     A.U. after   13 cycles
            NFock= 13  Conv=0.39D-08     -V/T= 2.0042
 <Sx>= 0.0000 <Sy>= 0.0000 <Sz>= 1.5000 <S**2>= 3.7674 S= 1.5043
 <L.S>=  0.00000000000    
 Annihilation of the first spin contaminant:
 S**2 before annihilation     3.7674,   after     3.7501

 **********************************************************************

            Population analysis using the SCF Density.

 **********************************************************************

 Alpha  occ. eigenvalues --  -90.26062 -25.76888 -25.76885 -25.76885 -25.76885
 Alpha  occ. eigenvalues --  -25.76878 -25.76878  -9.26598  -7.23310  -7.23310
 Alpha  occ. eigenvalues --   -7.23310  -2.35536  -2.24251  -2.24251  -2.24251
 Alpha  occ. eigenvalues --   -2.19717  -2.19717  -1.75055  -1.59027  -1.59027
 Alpha  occ. eigenvalues --   -1.59027  -1.50049  -1.50049  -1.50049  -1.44225
 Alpha  occ. eigenvalues --   -1.44225  -1.42396  -1.42396  -1.42396  -1.41672
 Alpha  occ. eigenvalues --   -1.41672  -1.41672  -1.39109  -1.39109  -1.39109
 Alpha virt. eigenvalues --   -0.89550  -0.70646  -0.70646  -0.70646  -0.40546
 Alpha virt. eigenvalues --   -0.34451  -0.34451  -0.34451  -0.31776  -0.31776
 Alpha virt. eigenvalues --   -0.31776   0.11298   0.11298   0.31939   0.31939
 Alpha virt. eigenvalues --    0.31939   0.40102   0.40102   0.40102   0.44168
 Alpha virt. eigenvalues --    0.44256   0.44256   0.44256   0.51654   0.51654
 Alpha virt. eigenvalues --    0.65280   0.65280   0.65280   0.72605   0.72605
 Alpha virt. eigenvalues --    0.76837   0.76837   0.76837   0.90725   0.90725
 Alpha virt. eigenvalues --    0.90725   0.92364   1.02891   1.02891   1.02891
 Alpha virt. eigenvalues --    1.05922   1.05922   1.14974   1.14974   1.16213
 Alpha virt. eigenvalues --    1.19942   1.19942   1.19942   1.21539   1.21539
 Alpha virt. eigenvalues --    1.21539   1.24645   1.24645   1.24645   1.29650
 Alpha virt. eigenvalues --    1.29650   1.29650   1.42853   1.42853   1.42853
 Alpha virt. eigenvalues --    1.58279   1.72614   1.72614   1.72614   1.78324
 Alpha virt. eigenvalues --    2.25185   2.25185
  Beta  occ. eigenvalues --  -90.26128 -25.75013 -25.75006 -25.75006 -25.75006
  Beta  occ. eigenvalues --  -25.74999 -25.74999  -9.26683  -7.23410  -7.23410
  Beta  occ. eigenvalues --   -7.23410  -2.32753  -2.20058  -2.20058  -2.20058
  Beta  occ. eigenvalues --   -2.14888  -2.14888  -1.72998  -1.56328  -1.56328
  Beta  occ. eigenvalues --   -1.56328  -1.43141  -1.43141  -1.43141  -1.42283
  Beta  occ. eigenvalues --   -1.42283  -1.33226  -1.33226  -1.33226  -1.32269
  Beta  occ. eigenvalues --   -1.32269  -1.32269
  Beta virt. eigenvalues --   -1.15903  -1.15903  -1.15903  -0.88123  -0.69238
  Beta virt. eigenvalues --   -0.69238  -0.69238  -0.40191  -0.33467  -0.33467
  Beta virt. eigenvalues --   -0.33467  -0.30547  -0.30547  -0.30547   0.11813
  Beta virt. eigenvalues --    0.11813   0.34401   0.34401   0.34401   0.43270
  Beta virt. eigenvalues --    0.43270   0.43270   0.44988   0.45841   0.45841
  Beta virt. eigenvalues --    0.45841   0.52908   0.52908   0.68166   0.68166
  Beta virt. eigenvalues --    0.68166   0.74409   0.74409   0.78887   0.78887
  Beta virt. eigenvalues --    0.78887   0.92576   0.92576   0.92576   0.95014
  Beta virt. eigenvalues --    1.05705   1.05705   1.05705   1.08905   1.08905
  Beta virt. eigenvalues --    1.17320   1.17320   1.19217   1.22565   1.22565
  Beta virt. eigenvalues --    1.22565   1.23308   1.23308   1.23308   1.26585
  Beta virt. eigenvalues --    1.26585   1.26585   1.31026   1.31026   1.31026
  Beta virt. eigenvalues --    1.44643   1.44643   1.44643   1.59539   1.74120
  Beta virt. eigenvalues --    1.74120   1.74120   1.80309   2.26552   2.26552
          Condensed to atoms (all electrons):
               1          2          3          4          5          6
     1  S   12.825372   0.201842   0.201842   0.201842   0.201842   0.201842
     2  F    0.201842   8.679306  -0.013544   0.000291  -0.013544  -0.013544
     3  F    0.201842  -0.013544   8.679306  -0.013544   0.000291  -0.013544
     4  F    0.201842   0.000291  -0.013544   8.679305  -0.013544  -0.013544
     5  F    0.201842  -0.013544   0.000291  -0.013544   8.679306  -0.013544
     6  F    0.201842  -0.013544  -0.013544  -0.013544  -0.013544   8.679306
     7  F    0.201842  -0.013544  -0.013544  -0.013544  -0.013544   0.000291
               7
     1  S    0.201842
     2  F   -0.013544
     3  F   -0.013544
     4  F   -0.013544
     5  F   -0.013544
     6  F    0.000291
     7  F    8.679306
          Atomic-Atomic Spin Densities.
               1          2          3          4          5          6
     1  S   -0.141486  -0.006696  -0.006696  -0.006696  -0.006696  -0.006696
     2  F   -0.006696   0.564628  -0.006894  -0.000077  -0.006894  -0.006894
     3  F   -0.006696  -0.006894   0.564629  -0.006894  -0.000077  -0.006894
     4  F   -0.006696  -0.000077  -0.006894   0.564629  -0.006894  -0.006894
     5  F   -0.006696  -0.006894  -0.000077  -0.006894   0.564629  -0.006894
     6  F   -0.006696  -0.006894  -0.006894  -0.006894  -0.006894   0.564629
     7  F   -0.006696  -0.006894  -0.006894  -0.006894  -0.006894  -0.000077
               7
     1  S   -0.006696
     2  F   -0.006894
     3  F   -0.006894
     4  F   -0.006894
     5  F   -0.006894
     6  F   -0.000077
     7  F    0.564629
 Mulliken charges and spin densities:
               1          2
     1  S    1.963578  -0.181664
     2  F    0.172737   0.530277
     3  F    0.172737   0.530277
     4  F    0.172737   0.530278
     5  F    0.172737   0.530277
     6  F    0.172737   0.530277
     7  F    0.172737   0.530277
 Sum of Mulliken charges =   3.00000   3.00000
 Mulliken charges and spin densities with hydrogens summed into heavy atoms:
               1          2
     1  S    1.963578  -0.181664
     2  F    0.172737   0.530277
     3  F    0.172737   0.530277
     4  F    0.172737   0.530278
     5  F    0.172737   0.530277
     6  F    0.172737   0.530277
     7  F    0.172737   0.530277
 Electronic spatial extent (au):  <R**2>=            547.0297
 Charge=              3.0000 electrons
 Dipole moment (field-independent basis, Debye):
    X=              0.0000    Y=             -0.0000    Z=             -0.0000  Tot=              0.0000
 Quadrupole moment (field-independent basis, Debye-Ang):
   XX=            -23.9063   YY=            -23.9063   ZZ=            -23.9063
   XY=             -0.0000   XZ=             -0.0000   YZ=              0.0000
 Traceless Quadrupole moment (field-independent basis, Debye-Ang):
   XX=              0.0000   YY=              0.0000   ZZ=             -0.0000
   XY=             -0.0000   XZ=             -0.0000   YZ=              0.0000
 Octapole moment (field-independent basis, Debye-Ang**2):
  XXX=              0.0000  YYY=             -0.0000  ZZZ=             -0.0000  XYY=              0.0000
  XXY=             -0.0000  XXZ=             -0.0000  XZZ=              0.0000  YZZ=             -0.0000
  YYZ=             -0.0000  XYZ=             -0.0000
 Hexadecapole moment (field-independent basis, Debye-Ang**3):
 XXXX=           -109.7852 YYYY=           -109.7852 ZZZZ=           -109.7852 XXXY=             -0.0000
 XXXZ=             -0.0000 YYYX=             -0.0000 YYYZ=             -0.0000 ZZZX=             -0.0000
 ZZZY=              0.0000 XXYY=            -47.9329 XXZZ=            -47.9329 YYZZ=            -47.9329
 XXYZ=              0.0000 YYXZ=             -0.0000 ZZXY=             -0.0000
 N-N= 5.532324554223D+02 E-N=-3.414289477999D+03  KE= 9.903796604914D+02
                          Isotropic Fermi Contact Couplings
        Atom                 a.u.       MegaHertz       Gauss      10(-4) cm-1
     1  S(33)             -0.16121     -18.45664      -6.58579      -6.15647
     2  F(19)              0.09029     126.62589      45.18327      42.23785
     3  F(19)              0.09029     126.62589      45.18327      42.23785
     4  F(19)              0.09029     126.62589      45.18327      42.23785
     5  F(19)              0.09029     126.62589      45.18327      42.23785
     6  F(19)              0.09029     126.62589      45.18327      42.23785
     7  F(19)              0.09029     126.62589      45.18327      42.23785
 --------------------------------------------------------
       Center         ----  Spin Dipole Couplings  ----
                      3XX-RR        3YY-RR        3ZZ-RR
 --------------------------------------------------------
     1   Atom        0.000000      0.000000     -0.000000
     2   Atom        0.945512      0.945512     -1.891025
     3   Atom        0.945513     -1.891025      0.945513
     4   Atom        0.945513      0.945513     -1.891026
     5   Atom        0.945513     -1.891026      0.945513
     6   Atom       -1.891026      0.945513      0.945513
     7   Atom       -1.891026      0.945513      0.945513
 --------------------------------------------------------
                        XY            XZ            YZ
 --------------------------------------------------------
     1   Atom        0.000000     -0.000000     -0.000000
     2   Atom       -0.000000     -0.000000      0.000000
     3   Atom       -0.000000     -0.000000      0.000000
     4   Atom        0.000000      0.000000     -0.000000
     5   Atom        0.000000      0.000000     -0.000000
     6   Atom        0.000000      0.000000     -0.000000
     7   Atom       -0.000000     -0.000000      0.000000
 --------------------------------------------------------


 ---------------------------------------------------------------------------------
              Anisotropic Spin Dipole Couplings in Principal Axis System
 ---------------------------------------------------------------------------------

       Atom             a.u.   MegaHertz   Gauss  10(-4) cm-1        Axes

              Baa    -0.0000    -0.000    -0.000    -0.000 -0.0000  0.0066  1.0000
     1 S(33)  Bbb     0.0000     0.000     0.000     0.000  0.9992 -0.0402  0.0003
              Bcc     0.0000     0.000     0.000     0.000  0.0402  0.9992 -0.0066
 
              Baa    -1.8910  -949.721  -338.884  -316.793  0.0000 -0.0000  1.0000
     2 F(19)  Bbb     0.9455   474.861   169.442   158.396  0.0108  0.9999  0.0000
              Bcc     0.9455   474.861   169.442   158.396  0.9999 -0.0108 -0.0000
 
              Baa    -1.8910  -949.721  -338.884  -316.793  0.0000  1.0000 -0.0000
     3 F(19)  Bbb     0.9455   474.861   169.442   158.396  1.0000 -0.0000  0.0003
              Bcc     0.9455   474.861   169.442   158.396 -0.0003  0.0000  1.0000
 
              Baa    -1.8910  -949.722  -338.884  -316.793 -0.0000  0.0000  1.0000
     4 F(19)  Bbb     0.9455   474.861   169.442   158.397 -0.0097  1.0000 -0.0000
              Bcc     0.9455   474.861   169.442   158.397  1.0000  0.0097  0.0000
 
              Baa    -1.8910  -949.722  -338.884  -316.793 -0.0000  1.0000  0.0000
     5 F(19)  Bbb     0.9455   474.861   169.442   158.397  1.0000  0.0000 -0.0003
              Bcc     0.9455   474.861   169.442   158.397  0.0003 -0.0000  1.0000
 
              Baa    -1.8910  -949.721  -338.884  -316.793  1.0000 -0.0000 -0.0000
     6 F(19)  Bbb     0.9455   474.861   169.442   158.396  0.0000  1.0000  0.0007
              Bcc     0.9455   474.861   169.442   158.396  0.0000 -0.0007  1.0000
 
              Baa    -1.8910  -949.721  -338.884  -316.793  1.0000  0.0000  0.0000
     7 F(19)  Bbb     0.9455   474.861   169.442   158.396 -0.0000  1.0000 -0.0008
              Bcc     0.9455   474.861   169.442   158.396 -0.0000  0.0008  1.0000
 

 ---------------------------------------------------------------------------------

 1\1\GINC-N001\SP\UCAM-B3LYP\6-31G(d)\F6S1(3+,4)\JORGE\04-Feb-2021\0\\#
  UCAM-B3LYP/6-31g(d) NoSymm 5D\\Single point of SF6^+3 at the UCAM-B3L
 YP/6-31G(d) level of theory\\3,4\S,0,0.,0.,0.\F,0,0.,0.,1.600072\F,0,0
 .,1.600072,0.\F,0,0.,0.,-1.600072\F,0,0.,-1.600072,0.\F,0,1.600072,0.,
 0.\F,0,-1.600072,0.,0.\\Version=ES64L-G16RevB.01\HF=-994.4957071\S2=3.
 767376\S2-1=0.\S2A=3.750149\RMSD=3.858e-09\Dipole=0.,-0.0000004,-0.000
 0018\Quadrupole=0.,0.,0.,0.,0.,0.\PG=OH [O(S1),3C4(F1.F1)]\\@


 HAPPINESS IS NOT HAVING WHAT YOU WANT --
 HAPPINESS IS WANTING WHAT YOU HAVE!

              -- FROM MRS. SEVERN'S DESK
 Job cpu time:       0 days  0 hours  0 minutes 36.1 seconds.
 Elapsed time:       0 days  0 hours  0 minutes  3.0 seconds.
 File lengths (MBytes):  RWF=     10 Int=      0 D2E=      0 Chk=      2 Scr=      1
 Normal termination of Gaussian 16 at Thu Feb  4 18:22:42 2021.
