 Entering Gaussian System, Link 0=g16
 Initial command:
 /opt/g16/l1.exe "/scratch/1491/Gau-450726.inp" -scrdir="/scratch/1491/"
 Entering Link 1 = /opt/g16/l1.exe PID=    450727.
  
 Copyright (c) 1988-2017, Gaussian, Inc.  All Rights Reserved.
  
 This is part of the Gaussian(R) 16 program.  It is based on
 the Gaussian(R) 09 system (copyright 2009, Gaussian, Inc.),
 the Gaussian(R) 03 system (copyright 2003, Gaussian, Inc.),
 the Gaussian(R) 98 system (copyright 1998, Gaussian, Inc.),
 the Gaussian(R) 94 system (copyright 1995, Gaussian, Inc.),
 the Gaussian 92(TM) system (copyright 1992, Gaussian, Inc.),
 the Gaussian 90(TM) system (copyright 1990, Gaussian, Inc.),
 the Gaussian 88(TM) system (copyright 1988, Gaussian, Inc.),
 the Gaussian 86(TM) system (copyright 1986, Carnegie Mellon
 University), and the Gaussian 82(TM) system (copyright 1983,
 Carnegie Mellon University). Gaussian is a federally registered
 trademark of Gaussian, Inc.
  
 This software contains proprietary and confidential information,
 including trade secrets, belonging to Gaussian, Inc.
  
 This software is provided under written license and may be
 used, copied, transmitted, or stored only in accord with that
 written license.
  
 The following legend is applicable only to US Government
 contracts under FAR:
  
                    RESTRICTED RIGHTS LEGEND
  
 Use, reproduction and disclosure by the US Government is
 subject to restrictions as set forth in subparagraphs (a)
 and (c) of the Commercial Computer Software - Restricted
 Rights clause in FAR 52.227-19.
  
 Gaussian, Inc.
 340 Quinnipiac St., Bldg. 40, Wallingford CT 06492
  
  
 ---------------------------------------------------------------
 Warning -- This program may not be used in any manner that
 competes with the business of Gaussian, Inc. or will provide
 assistance to any competitor of Gaussian, Inc.  The licensee
 of this program is prohibited from giving any competitor of
 Gaussian, Inc. access to this program.  By using this program,
 the user acknowledges that Gaussian, Inc. is engaged in the
 business of creating and licensing software in the field of
 computational chemistry and represents and warrants to the
 licensee that it is not a competitor of Gaussian, Inc. and that
 it will not use this program in any manner prohibited above.
 ---------------------------------------------------------------
  

 Cite this work as:
 Gaussian 16, Revision B.01,
 M. J. Frisch, G. W. Trucks, H. B. Schlegel, G. E. Scuseria, 
 M. A. Robb, J. R. Cheeseman, G. Scalmani, V. Barone, 
 G. A. Petersson, H. Nakatsuji, X. Li, M. Caricato, A. V. Marenich, 
 J. Bloino, B. G. Janesko, R. Gomperts, B. Mennucci, H. P. Hratchian, 
 J. V. Ortiz, A. F. Izmaylov, J. L. Sonnenberg, D. Williams-Young, 
 F. Ding, F. Lipparini, F. Egidi, J. Goings, B. Peng, A. Petrone, 
 T. Henderson, D. Ranasinghe, V. G. Zakrzewski, J. Gao, N. Rega, 
 G. Zheng, W. Liang, M. Hada, M. Ehara, K. Toyota, R. Fukuda, 
 J. Hasegawa, M. Ishida, T. Nakajima, Y. Honda, O. Kitao, H. Nakai, 
 T. Vreven, K. Throssell, J. A. Montgomery, Jr., J. E. Peralta, 
 F. Ogliaro, M. J. Bearpark, J. J. Heyd, E. N. Brothers, K. N. Kudin, 
 V. N. Staroverov, T. A. Keith, R. Kobayashi, J. Normand, 
 K. Raghavachari, A. P. Rendell, J. C. Burant, S. S. Iyengar, 
 J. Tomasi, M. Cossi, J. M. Millam, M. Klene, C. Adamo, R. Cammi, 
 J. W. Ochterski, R. L. Martin, K. Morokuma, O. Farkas, 
 J. B. Foresman, and D. J. Fox, Gaussian, Inc., Wallingford CT, 2016.
 
 ******************************************
 Gaussian 16:  ES64L-G16RevB.01 20-Dec-2017
                 4-Feb-2021 
 ******************************************
 %chk=SF6camb3lyp_N+2.chk
 %mem=32GB
 %nprocshared=16
 Will use up to   16 processors via shared memory.
 ------------------------------
 # CAM-B3LYP/6-31g(d) NoSymm 5D
 ------------------------------
 1/38=1,172=1/1;
 2/12=2,15=1,17=6,18=5,40=1/2;
 3/5=1,6=6,7=1,8=1,11=2,25=1,30=1,74=-40/1,2,3;
 4//1;
 5/5=2,38=5/2;
 6/7=2,8=2,9=2,10=2,28=1/1;
 99/5=1,9=1/99;
 -----------------------------------------------------------------
 Single point of SF6^-2 at the UCAM-B3LYP/6-31G(d) level of theory
 -----------------------------------------------------------------
 Symbolic Z-matrix:
 Charge = -2 Multiplicity = 1
 S                     0.        0.        0. 
 F                     0.        0.        1.60007 
 F                     0.        1.60007   0. 
 F                     0.        0.       -1.60007 
 F                     0.       -1.60007   0. 
 F                     1.60007   0.        0. 
 F                    -1.60007   0.        0. 
 
                          Input orientation:                          
 ---------------------------------------------------------------------
 Center     Atomic      Atomic             Coordinates (Angstroms)
 Number     Number       Type             X           Y           Z
 ---------------------------------------------------------------------
      1         16           0        0.000000    0.000000    0.000000
      2          9           0        0.000000    0.000000    1.600072
      3          9           0        0.000000    1.600072    0.000000
      4          9           0        0.000000    0.000000   -1.600072
      5          9           0        0.000000   -1.600072    0.000000
      6          9           0        1.600072    0.000000    0.000000
      7          9           0       -1.600072    0.000000    0.000000
 ---------------------------------------------------------------------
                    Distance matrix (angstroms):
                    1          2          3          4          5
     1  S    0.000000
     2  F    1.600072   0.000000
     3  F    1.600072   2.262844   0.000000
     4  F    1.600072   3.200144   2.262844   0.000000
     5  F    1.600072   2.262844   3.200144   2.262844   0.000000
     6  F    1.600072   2.262844   2.262844   2.262844   2.262844
     7  F    1.600072   2.262844   2.262844   2.262844   2.262844
                    6          7
     6  F    0.000000
     7  F    3.200144   0.000000
 Symmetry turned off by external request.
 Stoichiometry    F6S(2-)
 Framework group  OH[O(S),3C4(F.F)]
 Deg. of freedom     1
 Full point group                 OH      NOp  48
 Rotational constants (GHZ):           2.5975329           2.5975329           2.5975329
 Standard basis: 6-31G(d) (5D, 7F)
   102 basis functions,   220 primitive gaussians,   109 cartesian basis functions
    36 alpha electrons       36 beta electrons
       nuclear repulsion energy       553.2324554223 Hartrees.
 NAtoms=    7 NActive=    7 NUniq=    7 SFac= 1.00D+00 NAtFMM=   60 NAOKFM=F Big=F
 Integral buffers will be    131072 words long.
 Raffenetti 2 integral format.
 Two-electron integral symmetry is turned off.
 One-electron integrals computed using PRISM.
 NBasis=   102 RedAO= T EigKep=  1.70D-02  NBF=   102
 NBsUse=   102 1.00D-06 EigRej= -1.00D+00 NBFU=   102
 ExpMin= 1.17D-01 ExpMax= 2.19D+04 ExpMxC= 3.30D+03 IAcc=3 IRadAn=         5 AccDes= 0.00D+00
 Harris functional with IExCor=20419 and IRadAn=       5 diagonalized for initial guess.
 HarFok:  IExCor=20419 AccDes= 0.00D+00 IRadAn=         5 IDoV= 1 UseB2=F ITyADJ=14
 ICtDFT=  3500011 ScaDFX=  1.000000  1.000000  1.000000  1.000000
 FoFCou: FMM=F IPFlag=           0 FMFlag=      100000 FMFlg1=           0
         NFxFlg=           0 DoJE=T BraDBF=F KetDBF=T FulRan=T
         wScrn=  0.000000 ICntrl=       500 IOpCl=  0 I1Cent=   200000004 NGrid=           0
         NMat0=    1 NMatS0=      1 NMatT0=    0 NMatD0=    1 NMtDS0=    0 NMtDT0=    0
 Symmetry not used in FoFCou.
 Keep R1 ints in memory in canonical form, NReq=42555792.
 Requested convergence on RMS density matrix=1.00D-08 within 128 cycles.
 Requested convergence on MAX density matrix=1.00D-06.
 Requested convergence on             energy=1.00D-06.
 No special actions if energy rises.
 Integral accuracy reduced to 1.0D-05 until final iterations.
 Initial convergence to 1.0D-05 achieved.  Increase integral accuracy.
 SCF Done:  E(RCAM-B3LYP) =  -996.616100647     A.U. after   14 cycles
            NFock= 14  Conv=0.55D-08     -V/T= 1.9996

 **********************************************************************

            Population analysis using the SCF Density.

 **********************************************************************

 Alpha  occ. eigenvalues --  -88.60807 -24.23676 -24.23671 -24.23671 -24.23671
 Alpha  occ. eigenvalues --  -24.23663 -24.23663  -7.65474  -5.61590  -5.61590
 Alpha  occ. eigenvalues --   -5.61590  -0.87805  -0.77680  -0.77680  -0.77680
 Alpha  occ. eigenvalues --   -0.73561  -0.73561  -0.32426  -0.16497  -0.16497
 Alpha  occ. eigenvalues --   -0.16497  -0.06565  -0.06565  -0.06565  -0.02927
 Alpha  occ. eigenvalues --   -0.02927   0.01327   0.01327   0.01327   0.01959
 Alpha  occ. eigenvalues --    0.01959   0.01959   0.06040   0.06040   0.06040
 Alpha  occ. eigenvalues --    0.38975
 Alpha virt. eigenvalues --    0.74251   0.74251   0.74251   0.81714   0.87848
 Alpha virt. eigenvalues --    0.87848   0.87848   1.16755   1.16755   1.16755
 Alpha virt. eigenvalues --    1.58624   1.58624   1.65454   1.65454   1.65454
 Alpha virt. eigenvalues --    1.70380   1.70380   1.70380   1.71144   1.74456
 Alpha virt. eigenvalues --    1.74456   1.74456   1.77523   1.77523   1.94390
 Alpha virt. eigenvalues --    1.94390   1.94390   2.05608   2.05608   2.05608
 Alpha virt. eigenvalues --    2.08702   2.08702   2.24525   2.24525   2.24525
 Alpha virt. eigenvalues --    2.27878   2.38493   2.38493   2.38493   2.41442
 Alpha virt. eigenvalues --    2.41442   2.50906   2.50906   2.51846   2.57145
 Alpha virt. eigenvalues --    2.57145   2.57145   2.59487   2.59487   2.59487
 Alpha virt. eigenvalues --    2.64391   2.64391   2.64391   2.67274   2.67274
 Alpha virt. eigenvalues --    2.67274   2.73304   2.73304   2.73304   2.94014
 Alpha virt. eigenvalues --    3.13329   3.16145   3.16145   3.16145   3.67491
 Alpha virt. eigenvalues --    3.67491
          Condensed to atoms (all electrons):
               1          2          3          4          5          6
     1  S   16.247610  -0.240122  -0.240122  -0.240122  -0.240122  -0.240122
     2  F   -0.240122   9.738493   0.007695   0.003036   0.007695   0.007695
     3  F   -0.240122   0.007695   9.738493   0.007695   0.003036   0.007695
     4  F   -0.240122   0.003036   0.007695   9.738493   0.007695   0.007695
     5  F   -0.240122   0.007695   0.003036   0.007695   9.738493   0.007695
     6  F   -0.240122   0.007695   0.007695   0.007695   0.007695   9.738493
     7  F   -0.240122   0.007695   0.007695   0.007695   0.007695   0.003036
               7
     1  S   -0.240122
     2  F    0.007695
     3  F    0.007695
     4  F    0.007695
     5  F    0.007695
     6  F    0.003036
     7  F    9.738493
 Mulliken charges:
               1
     1  S    1.193120
     2  F   -0.532187
     3  F   -0.532187
     4  F   -0.532187
     5  F   -0.532187
     6  F   -0.532187
     7  F   -0.532187
 Sum of Mulliken charges =  -2.00000
 Mulliken charges with hydrogens summed into heavy atoms:
               1
     1  S    1.193120
     2  F   -0.532187
     3  F   -0.532187
     4  F   -0.532187
     5  F   -0.532187
     6  F   -0.532187
     7  F   -0.532187
 Electronic spatial extent (au):  <R**2>=            614.5049
 Charge=             -2.0000 electrons
 Dipole moment (field-independent basis, Debye):
    X=              0.0000    Y=              0.0000    Z=              0.0000  Tot=              0.0000
 Quadrupole moment (field-independent basis, Debye-Ang):
   XX=            -54.1585   YY=            -54.1585   ZZ=            -54.1585
   XY=             -0.0000   XZ=              0.0000   YZ=             -0.0000
 Traceless Quadrupole moment (field-independent basis, Debye-Ang):
   XX=              0.0000   YY=             -0.0000   ZZ=              0.0000
   XY=             -0.0000   XZ=              0.0000   YZ=             -0.0000
 Octapole moment (field-independent basis, Debye-Ang**2):
  XXX=              0.0000  YYY=              0.0000  ZZZ=              0.0000  XYY=             -0.0000
  XXY=              0.0000  XXZ=              0.0000  XZZ=             -0.0000  YZZ=              0.0000
  YYZ=              0.0000  XYZ=             -0.0000
 Hexadecapole moment (field-independent basis, Debye-Ang**3):
 XXXX=           -221.5350 YYYY=           -221.5350 ZZZZ=           -221.5350 XXXY=             -0.0000
 XXXZ=              0.0000 YYYX=             -0.0000 YYYZ=             -0.0000 ZZZX=              0.0000
 ZZZY=             -0.0000 XXYY=            -62.7367 XXZZ=            -62.7367 YYZZ=            -62.7367
 XXYZ=             -0.0000 YYXZ=             -0.0000 ZZXY=             -0.0000
 N-N= 5.532324554223D+02 E-N=-3.523035762053D+03  KE= 9.969998615204D+02
 1\1\GINC-N001\SP\RCAM-B3LYP\6-31G(d)\F6S1(2-)\JORGE\04-Feb-2021\0\\# C
 AM-B3LYP/6-31g(d) NoSymm 5D\\Single point of SF6^-2 at the UCAM-B3LYP/
 6-31G(d) level of theory\\-2,1\S,0,0.,0.,0.\F,0,0.,0.,1.600072\F,0,0.,
 1.600072,0.\F,0,0.,0.,-1.600072\F,0,0.,-1.600072,0.\F,0,1.600072,0.,0.
 \F,0,-1.600072,0.,0.\\Version=ES64L-G16RevB.01\HF=-996.6161006\RMSD=5.
 541e-09\Dipole=0.,0.,0.\Quadrupole=0.,0.,0.,0.,0.,0.\PG=OH [O(S1),3C4(
 F1.F1)]\\@


 IF THERE IS ONE WAY BETTER THAN ANOTHER IT IS THE WAY OF NATURE.

                          -- ARISTOTLE
 Job cpu time:       0 days  0 hours  0 minutes 30.4 seconds.
 Elapsed time:       0 days  0 hours  0 minutes  2.5 seconds.
 File lengths (MBytes):  RWF=     10 Int=      0 D2E=      0 Chk=      2 Scr=      1
 Normal termination of Gaussian 16 at Thu Feb  4 18:23:20 2021.
