 Entering Gaussian System, Link 0=g16
 Initial command:
 /opt/g16/l1.exe "/scratch/1490/Gau-450556.inp" -scrdir="/scratch/1490/"
 Entering Link 1 = /opt/g16/l1.exe PID=    450557.
  
 Copyright (c) 1988-2017, Gaussian, Inc.  All Rights Reserved.
  
 This is part of the Gaussian(R) 16 program.  It is based on
 the Gaussian(R) 09 system (copyright 2009, Gaussian, Inc.),
 the Gaussian(R) 03 system (copyright 2003, Gaussian, Inc.),
 the Gaussian(R) 98 system (copyright 1998, Gaussian, Inc.),
 the Gaussian(R) 94 system (copyright 1995, Gaussian, Inc.),
 the Gaussian 92(TM) system (copyright 1992, Gaussian, Inc.),
 the Gaussian 90(TM) system (copyright 1990, Gaussian, Inc.),
 the Gaussian 88(TM) system (copyright 1988, Gaussian, Inc.),
 the Gaussian 86(TM) system (copyright 1986, Carnegie Mellon
 University), and the Gaussian 82(TM) system (copyright 1983,
 Carnegie Mellon University). Gaussian is a federally registered
 trademark of Gaussian, Inc.
  
 This software contains proprietary and confidential information,
 including trade secrets, belonging to Gaussian, Inc.
  
 This software is provided under written license and may be
 used, copied, transmitted, or stored only in accord with that
 written license.
  
 The following legend is applicable only to US Government
 contracts under FAR:
  
                    RESTRICTED RIGHTS LEGEND
  
 Use, reproduction and disclosure by the US Government is
 subject to restrictions as set forth in subparagraphs (a)
 and (c) of the Commercial Computer Software - Restricted
 Rights clause in FAR 52.227-19.
  
 Gaussian, Inc.
 340 Quinnipiac St., Bldg. 40, Wallingford CT 06492
  
  
 ---------------------------------------------------------------
 Warning -- This program may not be used in any manner that
 competes with the business of Gaussian, Inc. or will provide
 assistance to any competitor of Gaussian, Inc.  The licensee
 of this program is prohibited from giving any competitor of
 Gaussian, Inc. access to this program.  By using this program,
 the user acknowledges that Gaussian, Inc. is engaged in the
 business of creating and licensing software in the field of
 computational chemistry and represents and warrants to the
 licensee that it is not a competitor of Gaussian, Inc. and that
 it will not use this program in any manner prohibited above.
 ---------------------------------------------------------------
  

 Cite this work as:
 Gaussian 16, Revision B.01,
 M. J. Frisch, G. W. Trucks, H. B. Schlegel, G. E. Scuseria, 
 M. A. Robb, J. R. Cheeseman, G. Scalmani, V. Barone, 
 G. A. Petersson, H. Nakatsuji, X. Li, M. Caricato, A. V. Marenich, 
 J. Bloino, B. G. Janesko, R. Gomperts, B. Mennucci, H. P. Hratchian, 
 J. V. Ortiz, A. F. Izmaylov, J. L. Sonnenberg, D. Williams-Young, 
 F. Ding, F. Lipparini, F. Egidi, J. Goings, B. Peng, A. Petrone, 
 T. Henderson, D. Ranasinghe, V. G. Zakrzewski, J. Gao, N. Rega, 
 G. Zheng, W. Liang, M. Hada, M. Ehara, K. Toyota, R. Fukuda, 
 J. Hasegawa, M. Ishida, T. Nakajima, Y. Honda, O. Kitao, H. Nakai, 
 T. Vreven, K. Throssell, J. A. Montgomery, Jr., J. E. Peralta, 
 F. Ogliaro, M. J. Bearpark, J. J. Heyd, E. N. Brothers, K. N. Kudin, 
 V. N. Staroverov, T. A. Keith, R. Kobayashi, J. Normand, 
 K. Raghavachari, A. P. Rendell, J. C. Burant, S. S. Iyengar, 
 J. Tomasi, M. Cossi, J. M. Millam, M. Klene, C. Adamo, R. Cammi, 
 J. W. Ochterski, R. L. Martin, K. Morokuma, O. Farkas, 
 J. B. Foresman, and D. J. Fox, Gaussian, Inc., Wallingford CT, 2016.
 
 ******************************************
 Gaussian 16:  ES64L-G16RevB.01 20-Dec-2017
                 4-Feb-2021 
 ******************************************
 %chk=SF6camb3lyp_N+1.chk
 %mem=32GB
 %nprocshared=16
 Will use up to   16 processors via shared memory.
 -------------------------------
 # UCAM-B3LYP/6-31g(d) NoSymm 5D
 -------------------------------
 1/38=1,172=1/1;
 2/12=2,15=1,17=6,18=5,40=1/2;
 3/5=1,6=6,7=1,8=1,11=2,25=1,30=1,74=-40,116=2/1,2,3;
 4//1;
 5/5=2,38=5/2;
 6/7=2,8=2,9=2,10=2,28=1/1;
 99/5=1,9=1/99;
 -----------------------------------------------------------------
 Single point of SF6^-1 at the UCAM-B3LYP/6-31G(d) level of theory
 -----------------------------------------------------------------
 Symbolic Z-matrix:
 Charge = -1 Multiplicity = 2
 S                     0.        0.        0. 
 F                     0.        0.        1.60007 
 F                     0.        1.60007   0. 
 F                     0.        0.       -1.60007 
 F                     0.       -1.60007   0. 
 F                     1.60007   0.        0. 
 F                    -1.60007   0.        0. 
 
                          Input orientation:                          
 ---------------------------------------------------------------------
 Center     Atomic      Atomic             Coordinates (Angstroms)
 Number     Number       Type             X           Y           Z
 ---------------------------------------------------------------------
      1         16           0        0.000000    0.000000    0.000000
      2          9           0        0.000000    0.000000    1.600072
      3          9           0        0.000000    1.600072    0.000000
      4          9           0        0.000000    0.000000   -1.600072
      5          9           0        0.000000   -1.600072    0.000000
      6          9           0        1.600072    0.000000    0.000000
      7          9           0       -1.600072    0.000000    0.000000
 ---------------------------------------------------------------------
                    Distance matrix (angstroms):
                    1          2          3          4          5
     1  S    0.000000
     2  F    1.600072   0.000000
     3  F    1.600072   2.262844   0.000000
     4  F    1.600072   3.200144   2.262844   0.000000
     5  F    1.600072   2.262844   3.200144   2.262844   0.000000
     6  F    1.600072   2.262844   2.262844   2.262844   2.262844
     7  F    1.600072   2.262844   2.262844   2.262844   2.262844
                    6          7
     6  F    0.000000
     7  F    3.200144   0.000000
 Symmetry turned off by external request.
 Stoichiometry    F6S(1-,2)
 Framework group  OH[O(S),3C4(F.F)]
 Deg. of freedom     1
 Full point group                 OH      NOp  48
 Rotational constants (GHZ):           2.5975329           2.5975329           2.5975329
 Standard basis: 6-31G(d) (5D, 7F)
   102 basis functions,   220 primitive gaussians,   109 cartesian basis functions
    36 alpha electrons       35 beta electrons
       nuclear repulsion energy       553.2324554223 Hartrees.
 NAtoms=    7 NActive=    7 NUniq=    7 SFac= 1.00D+00 NAtFMM=   60 NAOKFM=F Big=F
 Integral buffers will be    131072 words long.
 Raffenetti 2 integral format.
 Two-electron integral symmetry is turned off.
 One-electron integrals computed using PRISM.
 NBasis=   102 RedAO= T EigKep=  1.70D-02  NBF=   102
 NBsUse=   102 1.00D-06 EigRej= -1.00D+00 NBFU=   102
 ExpMin= 1.17D-01 ExpMax= 2.19D+04 ExpMxC= 3.30D+03 IAcc=3 IRadAn=         5 AccDes= 0.00D+00
 Harris functional with IExCor=20419 and IRadAn=       5 diagonalized for initial guess.
 HarFok:  IExCor=20419 AccDes= 0.00D+00 IRadAn=         5 IDoV= 1 UseB2=F ITyADJ=14
 ICtDFT=  3500011 ScaDFX=  1.000000  1.000000  1.000000  1.000000
 FoFCou: FMM=F IPFlag=           0 FMFlag=      100000 FMFlg1=           0
         NFxFlg=           0 DoJE=T BraDBF=F KetDBF=T FulRan=T
         wScrn=  0.000000 ICntrl=       500 IOpCl=  0 I1Cent=   200000004 NGrid=           0
         NMat0=    1 NMatS0=      1 NMatT0=    0 NMatD0=    1 NMtDS0=    0 NMtDT0=    0
 Symmetry not used in FoFCou.
 Initial guess <Sx>= 0.0000 <Sy>= 0.0000 <Sz>= 0.5000 <S**2>= 0.7500 S= 0.5000
 Keep R1 and R2 ints in memory in canonical form, NReq=70155054.
 Requested convergence on RMS density matrix=1.00D-08 within 128 cycles.
 Requested convergence on MAX density matrix=1.00D-06.
 Requested convergence on             energy=1.00D-06.
 No special actions if energy rises.
 Integral accuracy reduced to 1.0D-05 until final iterations.
 Initial convergence to 1.0D-05 achieved.  Increase integral accuracy.
 SCF Done:  E(UCAM-B3LYP) =  -996.954720371     A.U. after   13 cycles
            NFock= 13  Conv=0.85D-08     -V/T= 2.0022
 <Sx>= 0.0000 <Sy>= 0.0000 <Sz>= 0.5000 <S**2>= 0.7517 S= 0.5009
 <L.S>=  0.00000000000    
 Annihilation of the first spin contaminant:
 S**2 before annihilation     0.7517,   after     0.7500

 **********************************************************************

            Population analysis using the SCF Density.

 **********************************************************************

 Alpha  occ. eigenvalues --  -89.02196 -24.53604 -24.53598 -24.53598 -24.53598
 Alpha  occ. eigenvalues --  -24.53591 -24.53591  -8.04611  -6.00900  -6.00900
 Alpha  occ. eigenvalues --   -6.00900  -1.18203  -1.07016  -1.07016  -1.07016
 Alpha  occ. eigenvalues --   -1.02530  -1.02530  -0.62264  -0.45766  -0.45766
 Alpha  occ. eigenvalues --   -0.45766  -0.34536  -0.34536  -0.34536  -0.31952
 Alpha  occ. eigenvalues --   -0.31952  -0.26622  -0.26622  -0.26622  -0.25895
 Alpha  occ. eigenvalues --   -0.25895  -0.25895  -0.21916  -0.21916  -0.21916
 Alpha  occ. eigenvalues --    0.07354
 Alpha virt. eigenvalues --    0.43481   0.43481   0.43481   0.57282   0.62177
 Alpha virt. eigenvalues --    0.62177   0.62177   0.84945   0.84945   0.84945
 Alpha virt. eigenvalues --    1.27083   1.27083   1.38627   1.38627   1.38627
 Alpha virt. eigenvalues --    1.44951   1.44951   1.44951   1.45057   1.48115
 Alpha virt. eigenvalues --    1.48115   1.48115   1.51480   1.51480   1.68958
 Alpha virt. eigenvalues --    1.68958   1.68958   1.79973   1.79973   1.79973
 Alpha virt. eigenvalues --    1.81690   1.81690   1.97816   1.97816   1.97816
 Alpha virt. eigenvalues --    2.01440   2.12054   2.12054   2.12054   2.15036
 Alpha virt. eigenvalues --    2.15036   2.23901   2.23901   2.25441   2.30161
 Alpha virt. eigenvalues --    2.30161   2.30161   2.31838   2.31838   2.31838
 Alpha virt. eigenvalues --    2.36436   2.36436   2.36436   2.38862   2.38862
 Alpha virt. eigenvalues --    2.38862   2.47272   2.47272   2.47272   2.66736
 Alpha virt. eigenvalues --    2.85380   2.86003   2.86003   2.86003   3.37766
 Alpha virt. eigenvalues --    3.37766
  Beta  occ. eigenvalues --  -89.01497 -24.53101 -24.53097 -24.53097 -24.53097
  Beta  occ. eigenvalues --  -24.53090 -24.53090  -8.03565  -6.00191  -6.00191
  Beta  occ. eigenvalues --   -6.00191  -1.16764  -1.05807  -1.05807  -1.05807
  Beta  occ. eigenvalues --   -1.01359  -1.01359  -0.59953  -0.44172  -0.44172
  Beta  occ. eigenvalues --   -0.44172  -0.34106  -0.34106  -0.34106  -0.29456
  Beta  occ. eigenvalues --   -0.29456  -0.25635  -0.25635  -0.25635  -0.25451
  Beta  occ. eigenvalues --   -0.25451  -0.25451  -0.21449  -0.21449  -0.21449
  Beta virt. eigenvalues --    0.28741   0.46973   0.46973   0.46973   0.57568
  Beta virt. eigenvalues --    0.62906   0.62906   0.62906   0.86274   0.86274
  Beta virt. eigenvalues --    0.86274   1.28807   1.28807   1.39195   1.39195
  Beta virt. eigenvalues --    1.39195   1.45800   1.45800   1.45800   1.46400
  Beta virt. eigenvalues --    1.48370   1.48370   1.48370   1.52589   1.52589
  Beta virt. eigenvalues --    1.69329   1.69329   1.69329   1.80583   1.80583
  Beta virt. eigenvalues --    1.80583   1.82149   1.82149   1.98154   1.98154
  Beta virt. eigenvalues --    1.98154   2.01518   2.12135   2.12135   2.12135
  Beta virt. eigenvalues --    2.15117   2.15117   2.24490   2.24490   2.25530
  Beta virt. eigenvalues --    2.30313   2.30313   2.30313   2.32607   2.32607
  Beta virt. eigenvalues --    2.32607   2.36718   2.36718   2.36718   2.39946
  Beta virt. eigenvalues --    2.39946   2.39946   2.47625   2.47625   2.47625
  Beta virt. eigenvalues --    2.67672   2.86318   2.87030   2.87030   2.87030
  Beta virt. eigenvalues --    3.38831   3.38831
          Condensed to atoms (all electrons):
               1          2          3          4          5          6
     1  S   14.124872   0.054535   0.054535   0.054535   0.054535   0.054535
     2  F    0.054535   9.423123  -0.013576   0.001298  -0.013576  -0.013576
     3  F    0.054535  -0.013576   9.423123  -0.013576   0.001298  -0.013576
     4  F    0.054535   0.001298  -0.013576   9.423123  -0.013576  -0.013576
     5  F    0.054535  -0.013576   0.001298  -0.013576   9.423123  -0.013576
     6  F    0.054535  -0.013576  -0.013576  -0.013576  -0.013576   9.423123
     7  F    0.054535  -0.013576  -0.013576  -0.013576  -0.013576   0.001298
               7
     1  S    0.054535
     2  F   -0.013576
     3  F   -0.013576
     4  F   -0.013576
     5  F   -0.013576
     6  F    0.001298
     7  F    9.423123
          Atomic-Atomic Spin Densities.
               1          2          3          4          5          6
     1  S    1.823323  -0.225332  -0.225332  -0.225332  -0.225332  -0.225332
     2  F   -0.225332   0.243749   0.017055   0.001473   0.017055   0.017055
     3  F   -0.225332   0.017055   0.243749   0.017055   0.001473   0.017055
     4  F   -0.225332   0.001473   0.017055   0.243749   0.017055   0.017055
     5  F   -0.225332   0.017055   0.001473   0.017055   0.243749   0.017055
     6  F   -0.225332   0.017055   0.017055   0.017055   0.017055   0.243749
     7  F   -0.225332   0.017055   0.017055   0.017055   0.017055   0.001473
               7
     1  S   -0.225332
     2  F    0.017055
     3  F    0.017055
     4  F    0.017055
     5  F    0.017055
     6  F    0.001473
     7  F    0.243749
 Mulliken charges and spin densities:
               1          2
     1  S    1.547916   0.471333
     2  F   -0.424653   0.088111
     3  F   -0.424653   0.088111
     4  F   -0.424653   0.088111
     5  F   -0.424653   0.088111
     6  F   -0.424653   0.088111
     7  F   -0.424653   0.088111
 Sum of Mulliken charges =  -1.00000   1.00000
 Mulliken charges and spin densities with hydrogens summed into heavy atoms:
               1          2
     1  S    1.547916   0.471333
     2  F   -0.424653   0.088111
     3  F   -0.424653   0.088111
     4  F   -0.424653   0.088111
     5  F   -0.424653   0.088111
     6  F   -0.424653   0.088111
     7  F   -0.424653   0.088111
 Electronic spatial extent (au):  <R**2>=            600.9139
 Charge=             -1.0000 electrons
 Dipole moment (field-independent basis, Debye):
    X=              0.0000    Y=             -0.0000    Z=              0.0000  Tot=              0.0000
 Quadrupole moment (field-independent basis, Debye-Ang):
   XX=            -48.0650   YY=            -48.0650   ZZ=            -48.0650
   XY=              0.0000   XZ=             -0.0000   YZ=              0.0000
 Traceless Quadrupole moment (field-independent basis, Debye-Ang):
   XX=              0.0000   YY=             -0.0000   ZZ=             -0.0000
   XY=              0.0000   XZ=             -0.0000   YZ=              0.0000
 Octapole moment (field-independent basis, Debye-Ang**2):
  XXX=              0.0000  YYY=             -0.0000  ZZZ=              0.0000  XYY=              0.0000
  XXY=             -0.0000  XXZ=              0.0000  XZZ=             -0.0000  YZZ=             -0.0000
  YYZ=              0.0000  XYZ=              0.0000
 Hexadecapole moment (field-independent basis, Debye-Ang**3):
 XXXX=           -195.8867 YYYY=           -195.8867 ZZZZ=           -195.8867 XXXY=              0.0000
 XXXZ=              0.0000 YYYX=              0.0000 YYYZ=              0.0000 ZZZX=             -0.0000
 ZZZY=              0.0000 XXYY=            -59.6350 XXZZ=            -59.6350 YYZZ=            -59.6350
 XXYZ=             -0.0000 YYXZ=             -0.0000 ZZXY=             -0.0000
 N-N= 5.532324554223D+02 E-N=-3.500018265825D+03  KE= 9.947202605822D+02
                          Isotropic Fermi Contact Couplings
        Atom                 a.u.       MegaHertz       Gauss      10(-4) cm-1
     1  S(33)              6.42612    2207.20042     787.58400     736.24281
     2  F(19)              0.22523     947.63326     338.13911     316.09643
     3  F(19)              0.22523     947.63326     338.13911     316.09643
     4  F(19)              0.22523     947.63326     338.13911     316.09643
     5  F(19)              0.22523     947.63326     338.13911     316.09643
     6  F(19)              0.22523     947.63326     338.13911     316.09643
     7  F(19)              0.22523     947.63326     338.13911     316.09643
 --------------------------------------------------------
       Center         ----  Spin Dipole Couplings  ----
                      3XX-RR        3YY-RR        3ZZ-RR
 --------------------------------------------------------
     1   Atom       -0.000000      0.000000      0.000000
     2   Atom       -0.420324     -0.420324      0.840649
     3   Atom       -0.420324      0.840649     -0.420324
     4   Atom       -0.420324     -0.420324      0.840649
     5   Atom       -0.420324      0.840649     -0.420324
     6   Atom        0.840649     -0.420324     -0.420324
     7   Atom        0.840649     -0.420324     -0.420324
 --------------------------------------------------------
                        XY            XZ            YZ
 --------------------------------------------------------
     1   Atom       -0.000000     -0.000000     -0.000000
     2   Atom       -0.000000      0.000000      0.000000
     3   Atom        0.000000      0.000000     -0.000000
     4   Atom        0.000000     -0.000000     -0.000000
     5   Atom       -0.000000     -0.000000     -0.000000
     6   Atom        0.000000      0.000000      0.000000
     7   Atom       -0.000000      0.000000      0.000000
 --------------------------------------------------------


 ---------------------------------------------------------------------------------
              Anisotropic Spin Dipole Couplings in Principal Axis System
 ---------------------------------------------------------------------------------

       Atom             a.u.   MegaHertz   Gauss  10(-4) cm-1        Axes

              Baa    -0.0000    -0.000    -0.000    -0.000  0.8123  0.5806  0.0564
     1 S(33)  Bbb     0.0000     0.000     0.000     0.000 -0.2953  0.3260  0.8981
              Bcc     0.0000     0.000     0.000     0.000 -0.5030  0.7461 -0.4362
 
              Baa    -0.4203  -211.098   -75.325   -70.415  0.9949  0.1009 -0.0000
     2 F(19)  Bbb    -0.4203  -211.098   -75.325   -70.415 -0.1009  0.9949 -0.0000
              Bcc     0.8406   422.195   150.650   140.829  0.0000  0.0000  1.0000
 
              Baa    -0.4203  -211.098   -75.325   -70.415  1.0000 -0.0000 -0.0045
     3 F(19)  Bbb    -0.4203  -211.098   -75.325   -70.415  0.0045  0.0000  1.0000
              Bcc     0.8406   422.195   150.650   140.829  0.0000  1.0000 -0.0000
 
              Baa    -0.4203  -211.098   -75.325   -70.415  0.9615 -0.2748  0.0000
     4 F(19)  Bbb    -0.4203  -211.098   -75.325   -70.415  0.2748  0.9615  0.0000
              Bcc     0.8406   422.195   150.650   140.829 -0.0000 -0.0000  1.0000
 
              Baa    -0.4203  -211.098   -75.325   -70.415  0.2827  0.0000  0.9592
     5 F(19)  Bbb    -0.4203  -211.098   -75.325   -70.415  0.9592  0.0000 -0.2827
              Bcc     0.8406   422.195   150.650   140.829 -0.0000  1.0000 -0.0000
 
              Baa    -0.4203  -211.098   -75.325   -70.415 -0.0000  0.7406 -0.6719
     6 F(19)  Bbb    -0.4203  -211.098   -75.325   -70.415 -0.0000  0.6719  0.7406
              Bcc     0.8406   422.195   150.650   140.829  1.0000  0.0000  0.0000
 
              Baa    -0.4203  -211.098   -75.325   -70.415  0.0000  0.9992 -0.0394
     7 F(19)  Bbb    -0.4203  -211.098   -75.325   -70.415 -0.0000  0.0394  0.9992
              Bcc     0.8406   422.195   150.650   140.829  1.0000 -0.0000  0.0000
 

 ---------------------------------------------------------------------------------

 1\1\GINC-N001\SP\UCAM-B3LYP\6-31G(d)\F6S1(1-,2)\JORGE\04-Feb-2021\0\\#
  UCAM-B3LYP/6-31g(d) NoSymm 5D\\Single point of SF6^-1 at the UCAM-B3L
 YP/6-31G(d) level of theory\\-1,2\S,0,0.,0.,0.\F,0,0.,0.,1.600072\F,0,
 0.,1.600072,0.\F,0,0.,0.,-1.600072\F,0,0.,-1.600072,0.\F,0,1.600072,0.
 ,0.\F,0,-1.600072,0.,0.\\Version=ES64L-G16RevB.01\HF=-996.9547204\S2=0
 .751748\S2-1=0.\S2A=0.750003\RMSD=8.538e-09\Dipole=0.,0.,0.\Quadrupole
 =0.,0.,0.,0.,0.,0.\PG=OH [O(S1),3C4(F1.F1)]\\@


 Everywhere is walking distance if you have the time.
                                    -- Steven Wright
 Job cpu time:       0 days  0 hours  0 minutes 35.8 seconds.
 Elapsed time:       0 days  0 hours  0 minutes  3.2 seconds.
 File lengths (MBytes):  RWF=     10 Int=      0 D2E=      0 Chk=      2 Scr=      1
 Normal termination of Gaussian 16 at Thu Feb  4 18:23:07 2021.
