 Entering Gaussian System, Link 0=g16
 Initial command:
 /opt/g16/l1.exe "/scratch/1489/Gau-450385.inp" -scrdir="/scratch/1489/"
 Entering Link 1 = /opt/g16/l1.exe PID=    450386.
  
 Copyright (c) 1988-2017, Gaussian, Inc.  All Rights Reserved.
  
 This is part of the Gaussian(R) 16 program.  It is based on
 the Gaussian(R) 09 system (copyright 2009, Gaussian, Inc.),
 the Gaussian(R) 03 system (copyright 2003, Gaussian, Inc.),
 the Gaussian(R) 98 system (copyright 1998, Gaussian, Inc.),
 the Gaussian(R) 94 system (copyright 1995, Gaussian, Inc.),
 the Gaussian 92(TM) system (copyright 1992, Gaussian, Inc.),
 the Gaussian 90(TM) system (copyright 1990, Gaussian, Inc.),
 the Gaussian 88(TM) system (copyright 1988, Gaussian, Inc.),
 the Gaussian 86(TM) system (copyright 1986, Carnegie Mellon
 University), and the Gaussian 82(TM) system (copyright 1983,
 Carnegie Mellon University). Gaussian is a federally registered
 trademark of Gaussian, Inc.
  
 This software contains proprietary and confidential information,
 including trade secrets, belonging to Gaussian, Inc.
  
 This software is provided under written license and may be
 used, copied, transmitted, or stored only in accord with that
 written license.
  
 The following legend is applicable only to US Government
 contracts under FAR:
  
                    RESTRICTED RIGHTS LEGEND
  
 Use, reproduction and disclosure by the US Government is
 subject to restrictions as set forth in subparagraphs (a)
 and (c) of the Commercial Computer Software - Restricted
 Rights clause in FAR 52.227-19.
  
 Gaussian, Inc.
 340 Quinnipiac St., Bldg. 40, Wallingford CT 06492
  
  
 ---------------------------------------------------------------
 Warning -- This program may not be used in any manner that
 competes with the business of Gaussian, Inc. or will provide
 assistance to any competitor of Gaussian, Inc.  The licensee
 of this program is prohibited from giving any competitor of
 Gaussian, Inc. access to this program.  By using this program,
 the user acknowledges that Gaussian, Inc. is engaged in the
 business of creating and licensing software in the field of
 computational chemistry and represents and warrants to the
 licensee that it is not a competitor of Gaussian, Inc. and that
 it will not use this program in any manner prohibited above.
 ---------------------------------------------------------------
  

 Cite this work as:
 Gaussian 16, Revision B.01,
 M. J. Frisch, G. W. Trucks, H. B. Schlegel, G. E. Scuseria, 
 M. A. Robb, J. R. Cheeseman, G. Scalmani, V. Barone, 
 G. A. Petersson, H. Nakatsuji, X. Li, M. Caricato, A. V. Marenich, 
 J. Bloino, B. G. Janesko, R. Gomperts, B. Mennucci, H. P. Hratchian, 
 J. V. Ortiz, A. F. Izmaylov, J. L. Sonnenberg, D. Williams-Young, 
 F. Ding, F. Lipparini, F. Egidi, J. Goings, B. Peng, A. Petrone, 
 T. Henderson, D. Ranasinghe, V. G. Zakrzewski, J. Gao, N. Rega, 
 G. Zheng, W. Liang, M. Hada, M. Ehara, K. Toyota, R. Fukuda, 
 J. Hasegawa, M. Ishida, T. Nakajima, Y. Honda, O. Kitao, H. Nakai, 
 T. Vreven, K. Throssell, J. A. Montgomery, Jr., J. E. Peralta, 
 F. Ogliaro, M. J. Bearpark, J. J. Heyd, E. N. Brothers, K. N. Kudin, 
 V. N. Staroverov, T. A. Keith, R. Kobayashi, J. Normand, 
 K. Raghavachari, A. P. Rendell, J. C. Burant, S. S. Iyengar, 
 J. Tomasi, M. Cossi, J. M. Millam, M. Klene, C. Adamo, R. Cammi, 
 J. W. Ochterski, R. L. Martin, K. Morokuma, O. Farkas, 
 J. B. Foresman, and D. J. Fox, Gaussian, Inc., Wallingford CT, 2016.
 
 ******************************************
 Gaussian 16:  ES64L-G16RevB.01 20-Dec-2017
                 4-Feb-2021 
 ******************************************
 %chk=SF6camb3lyp_N-1.chk
 %mem=32GB
 %nprocshared=16
 Will use up to   16 processors via shared memory.
 -------------------------------
 # UCAM-B3LYP/6-31g(d) NoSymm 5D
 -------------------------------
 1/38=1,172=1/1;
 2/12=2,15=1,17=6,18=5,40=1/2;
 3/5=1,6=6,7=1,8=1,11=2,25=1,30=1,74=-40,116=2/1,2,3;
 4//1;
 5/5=2,38=5/2;
 6/7=2,8=2,9=2,10=2,28=1/1;
 99/5=1,9=1/99;
 -----------------------------------------------------------------
 Single point of SF6^+1 at the UCAM-B3LYP/6-31G(d) level of theory
 -----------------------------------------------------------------
 Symbolic Z-matrix:
 Charge =  1 Multiplicity = 2
 S                     0.        0.        0. 
 F                     0.        0.        1.60007 
 F                     0.        1.60007   0. 
 F                     0.        0.       -1.60007 
 F                     0.       -1.60007   0. 
 F                     1.60007   0.        0. 
 F                    -1.60007   0.        0. 
 
                          Input orientation:                          
 ---------------------------------------------------------------------
 Center     Atomic      Atomic             Coordinates (Angstroms)
 Number     Number       Type             X           Y           Z
 ---------------------------------------------------------------------
      1         16           0        0.000000    0.000000    0.000000
      2          9           0        0.000000    0.000000    1.600072
      3          9           0        0.000000    1.600072    0.000000
      4          9           0        0.000000    0.000000   -1.600072
      5          9           0        0.000000   -1.600072    0.000000
      6          9           0        1.600072    0.000000    0.000000
      7          9           0       -1.600072    0.000000    0.000000
 ---------------------------------------------------------------------
                    Distance matrix (angstroms):
                    1          2          3          4          5
     1  S    0.000000
     2  F    1.600072   0.000000
     3  F    1.600072   2.262844   0.000000
     4  F    1.600072   3.200144   2.262844   0.000000
     5  F    1.600072   2.262844   3.200144   2.262844   0.000000
     6  F    1.600072   2.262844   2.262844   2.262844   2.262844
     7  F    1.600072   2.262844   2.262844   2.262844   2.262844
                    6          7
     6  F    0.000000
     7  F    3.200144   0.000000
 Symmetry turned off by external request.
 Stoichiometry    F6S(1+,2)
 Framework group  OH[O(S),3C4(F.F)]
 Deg. of freedom     1
 Full point group                 OH      NOp  48
 Rotational constants (GHZ):           2.5975329           2.5975329           2.5975329
 Standard basis: 6-31G(d) (5D, 7F)
   102 basis functions,   220 primitive gaussians,   109 cartesian basis functions
    35 alpha electrons       34 beta electrons
       nuclear repulsion energy       553.2324554223 Hartrees.
 NAtoms=    7 NActive=    7 NUniq=    7 SFac= 1.00D+00 NAtFMM=   60 NAOKFM=F Big=F
 Integral buffers will be    131072 words long.
 Raffenetti 2 integral format.
 Two-electron integral symmetry is turned off.
 One-electron integrals computed using PRISM.
 NBasis=   102 RedAO= T EigKep=  1.70D-02  NBF=   102
 NBsUse=   102 1.00D-06 EigRej= -1.00D+00 NBFU=   102
 ExpMin= 1.17D-01 ExpMax= 2.19D+04 ExpMxC= 3.30D+03 IAcc=3 IRadAn=         5 AccDes= 0.00D+00
 Harris functional with IExCor=20419 and IRadAn=       5 diagonalized for initial guess.
 HarFok:  IExCor=20419 AccDes= 0.00D+00 IRadAn=         5 IDoV= 1 UseB2=F ITyADJ=14
 ICtDFT=  3500011 ScaDFX=  1.000000  1.000000  1.000000  1.000000
 FoFCou: FMM=F IPFlag=           0 FMFlag=      100000 FMFlg1=           0
         NFxFlg=           0 DoJE=T BraDBF=F KetDBF=T FulRan=T
         wScrn=  0.000000 ICntrl=       500 IOpCl=  0 I1Cent=   200000004 NGrid=           0
         NMat0=    1 NMatS0=      1 NMatT0=    0 NMatD0=    1 NMtDS0=    0 NMtDT0=    0
 Symmetry not used in FoFCou.
 Initial guess <Sx>= 0.0000 <Sy>= 0.0000 <Sz>= 0.5000 <S**2>= 0.7500 S= 0.5000
 Keep R1 and R2 ints in memory in canonical form, NReq=70155054.
 Requested convergence on RMS density matrix=1.00D-08 within 128 cycles.
 Requested convergence on MAX density matrix=1.00D-06.
 Requested convergence on             energy=1.00D-06.
 No special actions if energy rises.
 Integral accuracy reduced to 1.0D-05 until final iterations.
 Rare condition: small coef for last iteration:  0.000D+00
 Rare condition: small coef for last iteration:  0.000D+00
 Rare condition: small coef for last iteration:  0.000D+00
 Rare condition: small coef for last iteration:  0.000D+00
 Initial convergence to 1.0D-05 achieved.  Increase integral accuracy.
 SCF Done:  E(UCAM-B3LYP) =  -996.422117484     A.U. after   35 cycles
            NFock= 35  Conv=0.69D-08     -V/T= 2.0045
 <Sx>= 0.0000 <Sy>= 0.0000 <Sz>= 0.5000 <S**2>= 0.7552 S= 0.5026
 <L.S>=  0.00000000000    
 Annihilation of the first spin contaminant:
 S**2 before annihilation     0.7552,   after     0.7500

 **********************************************************************

            Population analysis using the SCF Density.

 **********************************************************************

 Alpha  occ. eigenvalues --  -89.69273 -25.16746 -25.16746 -25.16746 -25.16738
 Alpha  occ. eigenvalues --  -25.09371 -25.09367  -8.69561  -6.66397  -6.66397
 Alpha  occ. eigenvalues --   -6.66112  -1.76864  -1.66823  -1.66823  -1.62266
 Alpha  occ. eigenvalues --   -1.60749  -1.57608  -1.18063  -1.03173  -1.03173
 Alpha  occ. eigenvalues --   -0.99468  -0.94638  -0.90190  -0.90190  -0.88914
 Alpha  occ. eigenvalues --   -0.86373  -0.86373  -0.84909  -0.83908  -0.83088
 Alpha  occ. eigenvalues --   -0.82615  -0.78837  -0.78837  -0.76749  -0.76749
 Alpha virt. eigenvalues --   -0.31386  -0.13712  -0.13712  -0.11045   0.08674
 Alpha virt. eigenvalues --    0.13544   0.13544   0.14814   0.24641   0.26727
 Alpha virt. eigenvalues --    0.26727   0.67858   0.69644   0.83345   0.86669
 Alpha virt. eigenvalues --    0.86669   0.92830   0.92830   0.94459   0.94463
 Alpha virt. eigenvalues --    0.95859   0.95859   0.96835   1.00275   1.03655
 Alpha virt. eigenvalues --    1.15166   1.19004   1.19004   1.27323   1.27918
 Alpha virt. eigenvalues --    1.28699   1.28699   1.29090   1.44555   1.44555
 Alpha virt. eigenvalues --    1.44684   1.47165   1.56426   1.56426   1.59390
 Alpha virt. eigenvalues --    1.61551   1.63325   1.68223   1.70305   1.73242
 Alpha virt. eigenvalues --    1.73727   1.73727   1.77719   1.77719   1.77841
 Alpha virt. eigenvalues --    1.77846   1.78437   1.81382   1.81382   1.82426
 Alpha virt. eigenvalues --    1.86060   1.86060   1.94588   1.94588   1.97229
 Alpha virt. eigenvalues --    2.12972   2.27758   2.27758   2.31633   2.31938
 Alpha virt. eigenvalues --    2.80248   2.82541
  Beta  occ. eigenvalues --  -89.69291 -25.15816 -25.15815 -25.15815 -25.15807
  Beta  occ. eigenvalues --  -25.09403 -25.09399  -8.69584  -6.66434  -6.66434
  Beta  occ. eigenvalues --   -6.66122  -1.75740  -1.64698  -1.64698  -1.60820
  Beta  occ. eigenvalues --   -1.59796  -1.57048  -1.17399  -1.01859  -1.01859
  Beta  occ. eigenvalues --   -0.99374  -0.89632  -0.89632  -0.88711  -0.87910
  Beta  occ. eigenvalues --   -0.84664  -0.82931  -0.81949  -0.79143  -0.79143
  Beta  occ. eigenvalues --   -0.77914  -0.77914  -0.76447  -0.76447
  Beta virt. eigenvalues --   -0.61126  -0.30947  -0.12976  -0.12976  -0.11079
  Beta virt. eigenvalues --    0.08792   0.14001   0.14001   0.14901   0.25889
  Beta virt. eigenvalues --    0.26739   0.26739   0.68216   0.69659   0.85567
  Beta virt. eigenvalues --    0.86874   0.86874   0.94422   0.94422   0.94851
  Beta virt. eigenvalues --    0.94935   0.96509   0.96509   0.96941   1.00948
  Beta virt. eigenvalues --    1.03754   1.17719   1.19194   1.19194   1.28108
  Beta virt. eigenvalues --    1.28408   1.29352   1.29687   1.29687   1.44864
  Beta virt. eigenvalues --    1.45353   1.45353   1.48212   1.57821   1.57821
  Beta virt. eigenvalues --    1.60924   1.61573   1.63605   1.69953   1.70889
  Beta virt. eigenvalues --    1.73458   1.75334   1.75334   1.77925   1.78006
  Beta virt. eigenvalues --    1.78160   1.78160   1.80117   1.81596   1.81596
  Beta virt. eigenvalues --    1.83613   1.86066   1.86066   1.95430   1.95430
  Beta virt. eigenvalues --    1.97318   2.13406   2.28523   2.28523   2.31585
  Beta virt. eigenvalues --    2.32600   2.80835   2.82840
          Condensed to atoms (all electrons):
               1          2          3          4          5          6
     1  S   12.699270   0.280108   0.220446   0.280108   0.220446   0.220446
     2  F    0.280108   9.052742  -0.027503   0.000034  -0.027503  -0.027503
     3  F    0.220446  -0.027503   8.967835  -0.027503   0.000137  -0.015083
     4  F    0.280108   0.000034  -0.027503   9.052742  -0.027503  -0.027503
     5  F    0.220446  -0.027503   0.000137  -0.027503   8.967835  -0.015083
     6  F    0.220446  -0.027503  -0.015083  -0.027503  -0.015083   8.967835
     7  F    0.220446  -0.027503  -0.015083  -0.027503  -0.015083   0.000137
               7
     1  S    0.220446
     2  F   -0.027503
     3  F   -0.015083
     4  F   -0.027503
     5  F   -0.015083
     6  F    0.000137
     7  F    8.967835
          Atomic-Atomic Spin Densities.
               1          2          3          4          5          6
     1  S   -0.045817   0.005021  -0.006333   0.005021  -0.006333  -0.006333
     2  F    0.005021  -0.012230   0.000034  -0.000010   0.000034   0.000034
     3  F   -0.006333   0.000034   0.289999   0.000034  -0.000035  -0.007441
     4  F    0.005021  -0.000010   0.000034  -0.012230   0.000034   0.000034
     5  F   -0.006333   0.000034  -0.000035   0.000034   0.289999  -0.007441
     6  F   -0.006333   0.000034  -0.007441   0.000034  -0.007441   0.289999
     7  F   -0.006333   0.000034  -0.007441   0.000034  -0.007441  -0.000035
               7
     1  S   -0.006333
     2  F    0.000034
     3  F   -0.007441
     4  F    0.000034
     5  F   -0.007441
     6  F   -0.000035
     7  F    0.289999
 Mulliken charges and spin densities:
               1          2
     1  S    1.858731  -0.061107
     2  F   -0.222872  -0.007083
     3  F   -0.103247   0.268818
     4  F   -0.222872  -0.007083
     5  F   -0.103247   0.268818
     6  F   -0.103247   0.268818
     7  F   -0.103247   0.268818
 Sum of Mulliken charges =   1.00000   1.00000
 Mulliken charges and spin densities with hydrogens summed into heavy atoms:
               1          2
     1  S    1.858731  -0.061107
     2  F   -0.222872  -0.007083
     3  F   -0.103247   0.268818
     4  F   -0.222872  -0.007083
     5  F   -0.103247   0.268818
     6  F   -0.103247   0.268818
     7  F   -0.103247   0.268818
 Electronic spatial extent (au):  <R**2>=            573.7302
 Charge=              1.0000 electrons
 Dipole moment (field-independent basis, Debye):
    X=              0.0000    Y=              0.0000    Z=              0.0000  Tot=              0.0000
 Quadrupole moment (field-independent basis, Debye-Ang):
   XX=            -34.7262   YY=            -34.7262   ZZ=            -38.1795
   XY=             -0.0000   XZ=             -0.0000   YZ=             -0.0000
 Traceless Quadrupole moment (field-independent basis, Debye-Ang):
   XX=              1.1511   YY=              1.1511   ZZ=             -2.3022
   XY=             -0.0000   XZ=             -0.0000   YZ=             -0.0000
 Octapole moment (field-independent basis, Debye-Ang**2):
  XXX=              0.0000  YYY=              0.0000  ZZZ=              0.0000  XYY=              0.0000
  XXY=              0.0000  XXZ=             -0.0000  XZZ=              0.0000  YZZ=              0.0000
  YYZ=             -0.0000  XYZ=              0.0000
 Hexadecapole moment (field-independent basis, Debye-Ang**3):
 XXXX=           -146.7229 YYYY=           -146.7229 ZZZZ=           -156.3746 XXXY=             -0.0000
 XXXZ=              0.0000 YYYX=             -0.0000 YYYZ=             -0.0000 ZZZX=             -0.0000
 ZZZY=             -0.0000 XXYY=            -52.2055 XXZZ=            -54.4639 YYZZ=            -54.4639
 XXYZ=             -0.0000 YYXZ=             -0.0000 ZZXY=             -0.0000
 N-N= 5.532324554223D+02 E-N=-3.456408249434D+03  KE= 9.919175906587D+02
                          Isotropic Fermi Contact Couplings
        Atom                 a.u.       MegaHertz       Gauss      10(-4) cm-1
     1  S(33)             -0.03620     -12.43227      -4.43614      -4.14696
     2  F(19)             -0.00325     -13.65493      -4.87242      -4.55479
     3  F(19)              0.04875     205.12033      73.19203      68.42078
     4  F(19)             -0.00325     -13.65493      -4.87242      -4.55479
     5  F(19)              0.04875     205.12033      73.19203      68.42078
     6  F(19)              0.04875     205.12028      73.19202      68.42076
     7  F(19)              0.04875     205.12028      73.19202      68.42076
 --------------------------------------------------------
       Center         ----  Spin Dipole Couplings  ----
                      3XX-RR        3YY-RR        3ZZ-RR
 --------------------------------------------------------
     1   Atom       -0.015794     -0.015794      0.031587
     2   Atom        0.010001      0.010001     -0.020003
     3   Atom        1.816833     -0.900221     -0.916612
     4   Atom        0.010001      0.010001     -0.020003
     5   Atom        1.816833     -0.900221     -0.916612
     6   Atom       -0.900221      1.816833     -0.916612
     7   Atom       -0.900221      1.816833     -0.916612
 --------------------------------------------------------
                        XY            XZ            YZ
 --------------------------------------------------------
     1   Atom       -0.000000      0.000000     -0.000000
     2   Atom       -0.000000      0.000000     -0.000000
     3   Atom       -0.000002     -0.000000      0.000000
     4   Atom       -0.000000      0.000000     -0.000000
     5   Atom       -0.000002     -0.000000      0.000000
     6   Atom       -0.000002     -0.000000     -0.000000
     7   Atom       -0.000002     -0.000000     -0.000000
 --------------------------------------------------------


 ---------------------------------------------------------------------------------
              Anisotropic Spin Dipole Couplings in Principal Axis System
 ---------------------------------------------------------------------------------

       Atom             a.u.   MegaHertz   Gauss  10(-4) cm-1        Axes

              Baa    -0.0158    -0.648    -0.231    -0.216  0.6686  0.7437 -0.0000
     1 S(33)  Bbb    -0.0158    -0.648    -0.231    -0.216  0.7437 -0.6686 -0.0000
              Bcc     0.0316     1.295     0.462     0.432  0.0000 -0.0000  1.0000
 
              Baa    -0.0200   -10.046    -3.585    -3.351 -0.0000  0.0000  1.0000
     2 F(19)  Bbb     0.0100     5.023     1.792     1.675  0.6900  0.7238 -0.0000
              Bcc     0.0100     5.023     1.792     1.675  0.7238 -0.6900  0.0000
 
              Baa    -0.9166  -460.346  -164.263  -153.555  0.0000 -0.0000  1.0000
     3 F(19)  Bbb    -0.9002  -452.114  -161.326  -150.809  0.0000  1.0000  0.0000
              Bcc     1.8168   912.460   325.588   304.364  1.0000 -0.0000 -0.0000
 
              Baa    -0.0200   -10.046    -3.585    -3.351 -0.0000  0.0000  1.0000
     4 F(19)  Bbb     0.0100     5.023     1.792     1.675  0.6900  0.7238 -0.0000
              Bcc     0.0100     5.023     1.792     1.675  0.7238 -0.6900  0.0000
 
              Baa    -0.9166  -460.346  -164.263  -153.555  0.0000 -0.0000  1.0000
     5 F(19)  Bbb    -0.9002  -452.114  -161.326  -150.809  0.0000  1.0000  0.0000
              Bcc     1.8168   912.460   325.588   304.364  1.0000 -0.0000 -0.0000
 
              Baa    -0.9166  -460.346  -164.263  -153.555  0.0000  0.0000  1.0000
     6 F(19)  Bbb    -0.9002  -452.114  -161.326  -150.809  1.0000  0.0000 -0.0000
              Bcc     1.8168   912.460   325.588   304.364 -0.0000  1.0000 -0.0000
 
              Baa    -0.9166  -460.346  -164.263  -153.555  0.0000  0.0000  1.0000
     7 F(19)  Bbb    -0.9002  -452.114  -161.326  -150.809  1.0000  0.0000 -0.0000
              Bcc     1.8168   912.460   325.588   304.364 -0.0000  1.0000 -0.0000
 

 ---------------------------------------------------------------------------------

 1\1\GINC-N001\SP\UCAM-B3LYP\6-31G(d)\F6S1(1+,2)\JORGE\04-Feb-2021\0\\#
  UCAM-B3LYP/6-31g(d) NoSymm 5D\\Single point of SF6^+1 at the UCAM-B3L
 YP/6-31G(d) level of theory\\1,2\S,0,0.,0.,0.\F,0,0.,0.,1.600072\F,0,0
 .,1.600072,0.\F,0,0.,0.,-1.600072\F,0,0.,-1.600072,0.\F,0,1.600072,0.,
 0.\F,0,-1.600072,0.,0.\\Version=ES64L-G16RevB.01\HF=-996.4221175\S2=0.
 755203\S2-1=0.\S2A=0.750022\RMSD=6.862e-09\Dipole=0.,0.,0.\Quadrupole=
 0.8558023,0.8558023,-1.7116046,-0.0000005,0.,0.\PG=OH [O(S1),3C4(F1.F1
 )]\\@


 If your ship doesn't come in, swim out to it!
                          -- Jonathan Winters
 Job cpu time:       0 days  0 hours  1 minutes  3.2 seconds.
 Elapsed time:       0 days  0 hours  0 minutes  5.6 seconds.
 File lengths (MBytes):  RWF=     10 Int=      0 D2E=      0 Chk=      2 Scr=      1
 Normal termination of Gaussian 16 at Thu Feb  4 18:22:59 2021.
