Single point of SF6^-1 at the UCAM-B3LYP/6-31G(d) level of theory       
SP        UCAM-B3LYP                                                  6-31G(d)            
Number of atoms                            I                7
Info1-9                                    I   N=           9
          16          16           0           0           0         110
           1          18        4002
Full Title                                 C   N=           6
Single point of SF6^-1 at the UCAM-B3LYP/6-31G(d) level of t
heory       
Route                                      C   N=           3
# UCAM-B3LYP/6-31g(d) NoSymm 5D     
Charge                                     I               -1
Multiplicity                               I                2
Number of electrons                        I               71
Number of alpha electrons                  I               36
Number of beta electrons                   I               35
Number of basis functions                  I              102
Number of independent functions            I              102
Number of point charges in /Mol/           I                0
Number of translation vectors              I                0
Atomic numbers                             I   N=           7
          16           9           9           9           9           9
           9
Nuclear charges                            R   N=           7
  1.60000000E+01  9.00000000E+00  9.00000000E+00  9.00000000E+00  9.00000000E+00
  9.00000000E+00  9.00000000E+00
Current cartesian coordinates              R   N=          21
  0.00000000E+00  0.00000000E+00  0.00000000E+00  0.00000000E+00  0.00000000E+00
  3.02369786E+00  0.00000000E+00  3.02369786E+00  0.00000000E+00  0.00000000E+00
  0.00000000E+00 -3.02369786E+00  0.00000000E+00 -3.02369786E+00  0.00000000E+00
  3.02369786E+00  0.00000000E+00  0.00000000E+00 -3.02369786E+00  0.00000000E+00
  0.00000000E+00
Number of symbols in /Mol/                 I                0
Force Field                                I                0
Atom Types                                 C   N=           7
                                                            
                        
Int Atom Types                             I   N=           7
           0           0           0           0           0           0
           0
MM charges                                 R   N=           7
  0.00000000E+00  0.00000000E+00  0.00000000E+00  0.00000000E+00  0.00000000E+00
  0.00000000E+00  0.00000000E+00
Integer atomic weights                     I   N=           7
          32          19          19          19          19          19
          19
Real atomic weights                        R   N=           7
  3.19720718E+01  1.89984032E+01  1.89984032E+01  1.89984032E+01  1.89984032E+01
  1.89984032E+01  1.89984032E+01
Atom fragment info                         I   N=           7
           0           0           0           0           0           0
           0
Atom residue num                           I   N=           7
           0           0           0           0           0           0
           0
Nuclear spins                              I   N=           7
           0           1           1           1           1           1
           1
Nuclear ZEff                               R   N=           7
 -1.36000000E+01 -6.75000000E+00 -6.75000000E+00 -6.75000000E+00 -6.75000000E+00
 -6.75000000E+00 -6.75000000E+00
Nuclear ZNuc                               R   N=           7
  1.60000000E+01  9.00000000E+00  9.00000000E+00  9.00000000E+00  9.00000000E+00
  9.00000000E+00  9.00000000E+00
Nuclear QMom                               R   N=           7
  0.00000000E+00  0.00000000E+00  0.00000000E+00  0.00000000E+00  0.00000000E+00
  0.00000000E+00  0.00000000E+00
Nuclear GFac                               R   N=           7
  0.00000000E+00  2.62886700E+00  2.62886700E+00  2.62886700E+00  2.62886700E+00
  2.62886700E+00  2.62886700E+00
MicOpt                                     I   N=           7
          -1          -1          -1          -1          -1          -1
          -1
Number of residues                         I                0
Number of secondary structures             I                0
Number of contracted shells                I               29
Number of primitive shells                 I               83
Pure/Cartesian d shells                    I                0
Pure/Cartesian f shells                    I                0
Highest angular momentum                   I                2
Largest degree of contraction              I                6
Shell types                                I   N=          29
           0          -1          -1          -1          -2           0
          -1          -1          -2           0          -1          -1
          -2           0          -1          -1          -2           0
          -1          -1          -2           0          -1          -1
          -2           0          -1          -1          -2
Number of primitives per shell             I   N=          29
           6           6           3           1           1           6
           3           1           1           6           3           1
           1           6           3           1           1           6
           3           1           1           6           3           1
           1           6           3           1           1
Shell to atom map                          I   N=          29
           1           1           1           1           1           2
           2           2           2           3           3           3
           3           4           4           4           4           5
           5           5           5           6           6           6
           6           7           7           7           7
Primitive exponents                        R   N=          83
  2.19171000E+04  3.30149000E+03  7.54146000E+02  2.12711000E+02  6.79896000E+01
  2.30515000E+01  4.23735000E+02  1.00710000E+02  3.21599000E+01  1.18079000E+01
  4.63110000E+00  1.87025000E+00  2.61584000E+00  9.22167000E-01  3.41287000E-01
  1.17167000E-01  6.50000000E-01  7.00171309E+03  1.05136609E+03  2.39285690E+02
  6.73974453E+01  2.15199573E+01  7.40310130E+00  2.08479528E+01  4.80830834E+00
  1.34406986E+00  3.58151393E-01  8.00000000E-01  7.00171309E+03  1.05136609E+03
  2.39285690E+02  6.73974453E+01  2.15199573E+01  7.40310130E+00  2.08479528E+01
  4.80830834E+00  1.34406986E+00  3.58151393E-01  8.00000000E-01  7.00171309E+03
  1.05136609E+03  2.39285690E+02  6.73974453E+01  2.15199573E+01  7.40310130E+00
  2.08479528E+01  4.80830834E+00  1.34406986E+00  3.58151393E-01  8.00000000E-01
  7.00171309E+03  1.05136609E+03  2.39285690E+02  6.73974453E+01  2.15199573E+01
  7.40310130E+00  2.08479528E+01  4.80830834E+00  1.34406986E+00  3.58151393E-01
  8.00000000E-01  7.00171309E+03  1.05136609E+03  2.39285690E+02  6.73974453E+01
  2.15199573E+01  7.40310130E+00  2.08479528E+01  4.80830834E+00  1.34406986E+00
  3.58151393E-01  8.00000000E-01  7.00171309E+03  1.05136609E+03  2.39285690E+02
  6.73974453E+01  2.15199573E+01  7.40310130E+00  2.08479528E+01  4.80830834E+00
  1.34406986E+00  3.58151393E-01  8.00000000E-01
Contraction coefficients                   R   N=          83
  1.86924085E-03  1.42303065E-02  6.96962317E-02  2.38487108E-01  4.83307220E-01
  3.38074154E-01 -2.37677050E-03 -3.16930067E-02 -1.13317024E-01  5.60900118E-02
  5.92255124E-01  4.55006095E-01 -2.50373114E-01  6.69567631E-02  1.05450627E+00
  1.00000000E+00  1.00000000E+00  1.81961690E-03  1.39160796E-02  6.84053245E-02
  2.33185760E-01  4.71267439E-01  3.56618546E-01 -1.08506975E-01 -1.46451658E-01
  1.12868858E+00  1.00000000E+00  1.00000000E+00  1.81961690E-03  1.39160796E-02
  6.84053245E-02  2.33185760E-01  4.71267439E-01  3.56618546E-01 -1.08506975E-01
 -1.46451658E-01  1.12868858E+00  1.00000000E+00  1.00000000E+00  1.81961690E-03
  1.39160796E-02  6.84053245E-02  2.33185760E-01  4.71267439E-01  3.56618546E-01
 -1.08506975E-01 -1.46451658E-01  1.12868858E+00  1.00000000E+00  1.00000000E+00
  1.81961690E-03  1.39160796E-02  6.84053245E-02  2.33185760E-01  4.71267439E-01
  3.56618546E-01 -1.08506975E-01 -1.46451658E-01  1.12868858E+00  1.00000000E+00
  1.00000000E+00  1.81961690E-03  1.39160796E-02  6.84053245E-02  2.33185760E-01
  4.71267439E-01  3.56618546E-01 -1.08506975E-01 -1.46451658E-01  1.12868858E+00
  1.00000000E+00  1.00000000E+00  1.81961690E-03  1.39160796E-02  6.84053245E-02
  2.33185760E-01  4.71267439E-01  3.56618546E-01 -1.08506975E-01 -1.46451658E-01
  1.12868858E+00  1.00000000E+00  1.00000000E+00
P(S=P) Contraction coefficients            R   N=          83
  0.00000000E+00  0.00000000E+00  0.00000000E+00  0.00000000E+00  0.00000000E+00
  0.00000000E+00  4.06100998E-03  3.06812999E-02  1.30451999E-01  3.27204999E-01
  4.52850998E-01  2.56041999E-01 -1.45104895E-02  3.10262776E-01  7.54482456E-01
  1.00000000E+00  0.00000000E+00  0.00000000E+00  0.00000000E+00  0.00000000E+00
  0.00000000E+00  0.00000000E+00  0.00000000E+00  7.16287242E-02  3.45912103E-01
  7.22469956E-01  1.00000000E+00  0.00000000E+00  0.00000000E+00  0.00000000E+00
  0.00000000E+00  0.00000000E+00  0.00000000E+00  0.00000000E+00  7.16287242E-02
  3.45912103E-01  7.22469956E-01  1.00000000E+00  0.00000000E+00  0.00000000E+00
  0.00000000E+00  0.00000000E+00  0.00000000E+00  0.00000000E+00  0.00000000E+00
  7.16287242E-02  3.45912103E-01  7.22469956E-01  1.00000000E+00  0.00000000E+00
  0.00000000E+00  0.00000000E+00  0.00000000E+00  0.00000000E+00  0.00000000E+00
  0.00000000E+00  7.16287242E-02  3.45912103E-01  7.22469956E-01  1.00000000E+00
  0.00000000E+00  0.00000000E+00  0.00000000E+00  0.00000000E+00  0.00000000E+00
  0.00000000E+00  0.00000000E+00  7.16287242E-02  3.45912103E-01  7.22469956E-01
  1.00000000E+00  0.00000000E+00  0.00000000E+00  0.00000000E+00  0.00000000E+00
  0.00000000E+00  0.00000000E+00  0.00000000E+00  7.16287242E-02  3.45912103E-01
  7.22469956E-01  1.00000000E+00  0.00000000E+00
Coordinates of each shell                  R   N=          87
  0.00000000E+00  0.00000000E+00  0.00000000E+00  0.00000000E+00  0.00000000E+00
  0.00000000E+00  0.00000000E+00  0.00000000E+00  0.00000000E+00  0.00000000E+00
  0.00000000E+00  0.00000000E+00  0.00000000E+00  0.00000000E+00  0.00000000E+00
  0.00000000E+00  0.00000000E+00  3.02369786E+00  0.00000000E+00  0.00000000E+00
  3.02369786E+00  0.00000000E+00  0.00000000E+00  3.02369786E+00  0.00000000E+00
  0.00000000E+00  3.02369786E+00  0.00000000E+00  3.02369786E+00  0.00000000E+00
  0.00000000E+00  3.02369786E+00  0.00000000E+00  0.00000000E+00  3.02369786E+00
  0.00000000E+00  0.00000000E+00  3.02369786E+00  0.00000000E+00  0.00000000E+00
  0.00000000E+00 -3.02369786E+00  0.00000000E+00  0.00000000E+00 -3.02369786E+00
  0.00000000E+00  0.00000000E+00 -3.02369786E+00  0.00000000E+00  0.00000000E+00
 -3.02369786E+00  0.00000000E+00 -3.02369786E+00  0.00000000E+00  0.00000000E+00
 -3.02369786E+00  0.00000000E+00  0.00000000E+00 -3.02369786E+00  0.00000000E+00
  0.00000000E+00 -3.02369786E+00  0.00000000E+00  3.02369786E+00  0.00000000E+00
  0.00000000E+00  3.02369786E+00  0.00000000E+00  0.00000000E+00  3.02369786E+00
  0.00000000E+00  0.00000000E+00  3.02369786E+00  0.00000000E+00  0.00000000E+00
 -3.02369786E+00  0.00000000E+00  0.00000000E+00 -3.02369786E+00  0.00000000E+00
  0.00000000E+00 -3.02369786E+00  0.00000000E+00  0.00000000E+00 -3.02369786E+00
  0.00000000E+00  0.00000000E+00
Num ILSW                                   I              100
ILSW                                       I   N=         100
           1           0           0           0           2           0
           0           0           0           0       20419          -1
           5           0           0           0           0           0
           0           0           1           0           0           0
           1           1           0           0           0           0
           0           0      100000           0          -1           0
           0           0           0           0           0           0
           0           0           0           1           0           0
           0 -2000000000           1           0           0           0
           0           0           4          52           0           0
           0           0          40           0           0           0
           0           0           0           0           0           1
           0           0           0           0           0           0
           0           0           0           0           0           0
           0           0           0           0           0           0
           0           0           0           0           0           0
           0           0           0           0
Num RLSW                                   I               52
RLSW                                       R   N=          52
  1.00000000E+00  1.00000000E+00  1.00000000E+00  8.10000000E-01  1.00000000E+00
  0.00000000E+00  3.30000000E-01  1.90000000E-01  0.00000000E+00  4.60000000E-01
  0.00000000E+00  3.30000000E-01  1.90000000E-01  0.00000000E+00  4.60000000E-01
  0.00000000E+00  0.00000000E+00  1.00000000E+00  0.00000000E+00  0.00000000E+00
  0.00000000E+00  0.00000000E+00  1.00000000E+00  0.00000000E+00  0.00000000E+00
  0.00000000E+00  0.00000000E+00  1.00000000E+00  0.00000000E+00  0.00000000E+00
  0.00000000E+00  0.00000000E+00  1.00000000E+00  0.00000000E+00  0.00000000E+00
  0.00000000E+00  0.00000000E+00  0.00000000E+00  1.00000000E+00  1.00000000E+00
  0.00000000E+00  1.00000000E+00  0.00000000E+00  0.00000000E+00  0.00000000E+00
  0.00000000E+00  0.00000000E+00  0.00000000E+00  0.00000000E+00  0.00000000E+00
  0.00000000E+00  0.00000000E+00
MxBond                                     I                6
NBond                                      I   N=           7
           6           1           1           1           1           1
           1
IBond                                      I   N=          42
           2           3           4           5           6           7
           1           0           0           0           0           0
           1           0           0           0           0           0
           1           0           0           0           0           0
           1           0           0           0           0           0
           1           0           0           0           0           0
           1           0           0           0           0           0
RBond                                      R   N=          42
  1.00000000E+00  1.00000000E+00  1.00000000E+00  1.00000000E+00  1.00000000E+00
  1.00000000E+00  1.00000000E+00  0.00000000E+00  0.00000000E+00  0.00000000E+00
  0.00000000E+00  0.00000000E+00  1.00000000E+00  0.00000000E+00  0.00000000E+00
  0.00000000E+00  0.00000000E+00  0.00000000E+00  1.00000000E+00  0.00000000E+00
  0.00000000E+00  0.00000000E+00  0.00000000E+00  0.00000000E+00  1.00000000E+00
  0.00000000E+00  0.00000000E+00  0.00000000E+00  0.00000000E+00  0.00000000E+00
  1.00000000E+00  0.00000000E+00  0.00000000E+00  0.00000000E+00  0.00000000E+00
  0.00000000E+00  1.00000000E+00  0.00000000E+00  0.00000000E+00  0.00000000E+00
  0.00000000E+00  0.00000000E+00
Virial Ratio                               R      2.002246319771947E+00
SCF Energy                                 R     -9.969547203711087E+02
Total Energy                               R     -9.969547203711087E+02
S**2                                       R      7.517475313830744E-01
S**2 after annihilation                    R      7.500027364862190E-01
RMS Density                                R      8.537594235893459E-09
Job Status                                 I                1
Nuclear derivative order                   I                0
External E-field                           R   N=          35
  0.00000000E+00  0.00000000E+00  0.00000000E+00  0.00000000E+00  0.00000000E+00
  0.00000000E+00  0.00000000E+00  0.00000000E+00  0.00000000E+00  0.00000000E+00
  0.00000000E+00  0.00000000E+00  0.00000000E+00  0.00000000E+00  0.00000000E+00
  0.00000000E+00  0.00000000E+00  0.00000000E+00  0.00000000E+00  0.00000000E+00
  0.00000000E+00  0.00000000E+00  0.00000000E+00  0.00000000E+00  0.00000000E+00
  0.00000000E+00  0.00000000E+00  0.00000000E+00  0.00000000E+00  0.00000000E+00
  0.00000000E+00  0.00000000E+00  0.00000000E+00  0.00000000E+00  0.00000000E+00
IOpCl                                      I                1
IROHF                                      I                0
Alpha Orbital Energies                     R   N=         102
 -8.90219553E+01 -2.45360365E+01 -2.45359836E+01 -2.45359836E+01 -2.45359836E+01
 -2.45359065E+01 -2.45359065E+01 -8.04611477E+00 -6.00899857E+00 -6.00899857E+00
 -6.00899857E+00 -1.18202570E+00 -1.07016416E+00 -1.07016416E+00 -1.07016416E+00
 -1.02529808E+00 -1.02529808E+00 -6.22638670E-01 -4.57659237E-01 -4.57659237E-01
 -4.57659237E-01 -3.45355700E-01 -3.45355700E-01 -3.45355700E-01 -3.19522112E-01
 -3.19522112E-01 -2.66216068E-01 -2.66216068E-01 -2.66216068E-01 -2.58945423E-01
 -2.58945423E-01 -2.58945423E-01 -2.19155692E-01 -2.19155692E-01 -2.19155692E-01
  7.35384161E-02  4.34813335E-01  4.34813335E-01  4.34813335E-01  5.72817703E-01
  6.21766538E-01  6.21766538E-01  6.21766538E-01  8.49451086E-01  8.49451086E-01
  8.49451086E-01  1.27083112E+00  1.27083112E+00  1.38626685E+00  1.38626685E+00
  1.38626685E+00  1.44951214E+00  1.44951214E+00  1.44951214E+00  1.45056523E+00
  1.48114845E+00  1.48114845E+00  1.48114845E+00  1.51480292E+00  1.51480292E+00
  1.68958255E+00  1.68958255E+00  1.68958255E+00  1.79972928E+00  1.79972928E+00
  1.79972928E+00  1.81690442E+00  1.81690442E+00  1.97815752E+00  1.97815752E+00
  1.97815752E+00  2.01439952E+00  2.12053510E+00  2.12053510E+00  2.12053510E+00
  2.15035908E+00  2.15035908E+00  2.23901174E+00  2.23901174E+00  2.25441368E+00
  2.30161423E+00  2.30161423E+00  2.30161423E+00  2.31838009E+00  2.31838009E+00
  2.31838009E+00  2.36435733E+00  2.36435733E+00  2.36435733E+00  2.38861932E+00
  2.38861932E+00  2.38861932E+00  2.47272265E+00  2.47272265E+00  2.47272265E+00
  2.66735833E+00  2.85380327E+00  2.86002968E+00  2.86002968E+00  2.86002968E+00
  3.37765853E+00  3.37765853E+00
Beta Orbital Energies                      R   N=         102
 -8.90149688E+01 -2.45310128E+01 -2.45309748E+01 -2.45309748E+01 -2.45309748E+01
 -2.45309014E+01 -2.45309014E+01 -8.03564811E+00 -6.00190630E+00 -6.00190630E+00
 -6.00190630E+00 -1.16763980E+00 -1.05806759E+00 -1.05806759E+00 -1.05806759E+00
 -1.01359217E+00 -1.01359217E+00 -5.99528190E-01 -4.41721072E-01 -4.41721072E-01
 -4.41721072E-01 -3.41063585E-01 -3.41063585E-01 -3.41063585E-01 -2.94560043E-01
 -2.94560043E-01 -2.56348117E-01 -2.56348117E-01 -2.56348117E-01 -2.54508275E-01
 -2.54508275E-01 -2.54508275E-01 -2.14491109E-01 -2.14491109E-01 -2.14491109E-01
  2.87408413E-01  4.69730078E-01  4.69730078E-01  4.69730078E-01  5.75679405E-01
  6.29056057E-01  6.29056057E-01  6.29056057E-01  8.62743754E-01  8.62743754E-01
  8.62743754E-01  1.28807202E+00  1.28807202E+00  1.39194701E+00  1.39194701E+00
  1.39194701E+00  1.45799595E+00  1.45799595E+00  1.45799595E+00  1.46399983E+00
  1.48369992E+00  1.48369992E+00  1.48369992E+00  1.52588800E+00  1.52588800E+00
  1.69328571E+00  1.69328571E+00  1.69328571E+00  1.80582949E+00  1.80582949E+00
  1.80582949E+00  1.82149000E+00  1.82149000E+00  1.98153817E+00  1.98153817E+00
  1.98153817E+00  2.01517979E+00  2.12134877E+00  2.12134877E+00  2.12134877E+00
  2.15116979E+00  2.15116979E+00  2.24489711E+00  2.24489711E+00  2.25530083E+00
  2.30312523E+00  2.30312523E+00  2.30312523E+00  2.32607001E+00  2.32607001E+00
  2.32607001E+00  2.36717593E+00  2.36717593E+00  2.36717593E+00  2.39945835E+00
  2.39945835E+00  2.39945835E+00  2.47625042E+00  2.47625042E+00  2.47625042E+00
  2.67672203E+00  2.86317867E+00  2.87030346E+00  2.87030346E+00  2.87030346E+00
  3.38831126E+00  3.38831126E+00
Alpha MO coefficients                      R   N=       10404
  9.96580307E-01  1.27833541E-02  3.47592921E-16 -6.03428678E-18  2.90912741E-17
 -5.65586381E-03 -1.96490866E-16  4.43481081E-16  2.63967827E-16 -1.18265335E-03
 -4.64148048E-15 -3.27302708E-15 -1.48141485E-15  6.49819789E-16 -1.36522557E-16
 -6.19156592E-17 -5.57624143E-16  6.15961714E-17 -2.78031067E-05 -5.19248563E-04
 -5.04191077E-16 -3.66170585E-16  1.24250846E-04  1.32780561E-03  1.31839516E-15
  8.78309517E-16 -1.02317740E-03  5.36165452E-04 -1.01255581E-15 -5.91707785E-16
  5.41594846E-17 -1.11234569E-16 -2.78031067E-05 -5.19248563E-04 -3.03896566E-16
  1.24250846E-04 -1.05083257E-16  1.32780561E-03  1.10398461E-15 -1.02317740E-03
  3.66443683E-16 -2.68082726E-04  4.21321854E-16 -4.57381976E-16 -4.64332902E-04
 -1.07459362E-15 -2.78031067E-05 -5.19248563E-04 -6.52523705E-16 -1.25827954E-16
 -1.24250846E-04  1.32780561E-03  1.33625435E-15  4.51178106E-16  1.02317740E-03
  5.36165452E-04  1.02326927E-15  3.07365076E-16 -2.99086825E-17  3.16436366E-18
 -2.78031067E-05 -5.19248563E-04 -4.15097488E-16 -1.24250846E-04 -3.35808345E-16
  1.32780561E-03  9.67662503E-16  1.02317740E-03  6.29957110E-16 -2.68082726E-04
 -4.52336333E-16  3.71342342E-16 -4.64332902E-04  6.66645668E-16 -2.78031067E-05
 -5.19248563E-04  1.24250846E-04 -1.99026438E-16 -2.19173366E-16  1.32780561E-03
 -1.02317740E-03  7.04408089E-16  5.12780683E-16 -2.68082726E-04 -3.17544341E-16
 -5.49294169E-16  4.64332902E-04 -2.20198588E-16 -2.78031067E-05 -5.19248563E-04
 -1.24250846E-04 -3.48089362E-16 -1.80983309E-16  1.32780561E-03  1.02317740E-03
  7.79072550E-16  4.32137239E-16 -2.68082726E-04  2.13207817E-16  6.30624984E-16
  4.64332902E-04  2.27302763E-16  3.26901708E-05 -1.22761287E-03 -1.40337457E-13
 -2.92811744E-13  2.04209308E-13 -2.38112179E-03  8.62283991E-13  1.79660845E-12
 -1.25163271E-12  1.82584682E-02  2.90087757E-12  6.00744916E-12 -4.19807921E-12
 -1.13800640E-12 -4.10725920E-16  3.88087287E-16 -2.70335191E-14 -8.02801968E-16
  4.06224912E-01  1.20545332E-02  5.06097202E-14  1.04719764E-13 -4.07649000E-04
 -8.44235288E-03 -4.11461138E-13 -8.51482348E-13  2.00508577E-03 -1.71472291E-04
  6.79157481E-14  1.42718945E-13 -3.05560829E-15  2.10467827E-17  4.06224914E-01
  1.20545332E-02  5.07968778E-14 -4.07649001E-04 -7.35521476E-14 -8.44235290E-03
 -4.11310449E-13  2.00508578E-03  5.95754937E-13  8.57361459E-05 -1.70659285E-16
 -9.93715796E-14  1.48499361E-04  6.77272729E-14  4.06224913E-01  1.20545332E-02
  5.10215215E-14  1.04783855E-13  4.07649000E-04 -8.44235290E-03 -4.11743283E-13
 -8.51550352E-13 -2.00508578E-03 -1.71472291E-04 -6.88364492E-14 -1.41876096E-13
 -3.49434249E-15  2.67801284E-16  4.06224913E-01  1.20545332E-02  5.06296537E-14
  4.07649000E-04 -7.34149551E-14 -8.44235288E-03 -4.11480459E-13 -2.00508578E-03
  5.95373047E-13  8.57361456E-05  2.14546053E-16  9.96375467E-14  1.48499361E-04
 -6.94165004E-14  4.06224914E-01  1.20545332E-02 -4.07649001E-04  1.04745219E-13
 -7.32608354E-14 -8.44235290E-03  2.00508578E-03 -8.51437447E-13  5.95332543E-13
  8.57361458E-05 -9.94622388E-14 -4.72058301E-17 -1.48499361E-04  1.41580501E-13
  4.06224913E-01  1.20545332E-02  4.07649000E-04  1.04817901E-13 -7.33347608E-14
 -8.44235289E-03 -2.00508578E-03 -8.51841494E-13  5.95324049E-13  8.57361457E-05
  9.97678773E-14  1.24136105E-16 -1.48499361E-04 -1.43291236E-13 -2.90834883E-14
  1.09397182E-12 -2.65521150E-04 -1.12092204E-04  2.10027626E-04  2.12283357E-12
  1.62736625E-03  6.87007678E-04 -1.28724913E-03 -1.62738356E-11  5.44922790E-03
  2.30044184E-03 -4.31034740E-03  7.33068962E-14 -3.07908943E-16  1.26448232E-16
 -1.07067006E-13 -1.06412633E-17 -4.14343928E-01 -1.17288063E-02  9.52082442E-05
  4.01930389E-05  4.50021317E-04  6.45250296E-03 -7.72953815E-04 -3.26309586E-04
 -1.34433175E-03  2.08423322E-04  1.29294840E-04  5.45830097E-05 -1.29825486E-14
 -6.48305025E-16  2.21136260E-01  6.25968957E-03  9.52082442E-05 -2.40177361E-04
 -7.53098633E-05 -3.44371494E-03 -7.72953815E-04  7.17472795E-04  6.11407622E-04
  5.56179915E-05 -7.86912966E-16 -1.02272411E-04  9.63331870E-05  1.29294840E-04
  4.14343927E-01  1.17288063E-02  9.52082442E-05  4.01930389E-05  4.50021316E-04
 -6.45250294E-03 -7.72953815E-04 -3.26309586E-04 -1.34433175E-03 -2.08423322E-04
 -1.29294840E-04 -5.45830097E-05 -1.32476334E-14  8.52456837E-16 -2.21136261E-01
 -6.25968959E-03  9.52082442E-05 -2.40177362E-04 -7.53098633E-05  3.44371495E-03
 -7.72953815E-04  7.17472799E-04  6.11407622E-04 -5.56179916E-05  3.74588245E-16
  1.02272411E-04 -9.63331872E-05 -1.29294840E-04  5.23821928E-01  1.48277928E-02
 -5.68926001E-04  4.01930389E-05 -7.53098633E-05 -8.15738403E-03  1.69953124E-03
 -3.26309586E-04  6.11407622E-04  1.31746478E-04 -1.02272411E-04 -6.00844779E-16
 -2.28191594E-04  5.45830097E-05 -5.23821929E-01 -1.48277929E-02 -5.68926001E-04
  4.01930389E-05 -7.53098633E-05  8.15738404E-03  1.69953124E-03 -3.26309586E-04
  6.11407622E-04 -1.31746478E-04  1.02272411E-04  4.70570845E-16  2.28191594E-04
 -5.45830097E-05 -1.45669485E-14  5.44091824E-13 -7.32456319E-06 -3.10621064E-04
 -1.75039002E-04  1.05362930E-12  4.48918924E-05  1.90378143E-03  1.07280555E-03
 -8.08267635E-12  1.50320282E-04  6.37480279E-03  3.59228413E-03 -1.31294598E-13
 -3.16848912E-16 -6.28749082E-16  5.45498285E-13  3.05871310E-16  3.45318132E-01
  9.77489763E-03  2.62637760E-06  1.11379776E-04 -3.75052004E-04 -5.37757673E-03
 -2.13224034E-05 -9.04243359E-04  1.12037874E-03 -1.73701960E-04  3.56667717E-06
  1.51256127E-04  6.80025759E-14 -1.45255976E-16  6.12795345E-01  1.73463575E-02
  2.62637760E-06 -6.65560539E-04  6.27639495E-05 -9.54295094E-03 -2.13224034E-05
  1.98820396E-03 -5.09552871E-04  1.54124186E-04 -7.10021989E-16  8.52347908E-05
  2.66950922E-04  3.56667717E-06 -3.45318132E-01 -9.77489764E-03  2.62637760E-06
  1.11379776E-04 -3.75052004E-04  5.37757674E-03 -2.13224034E-05 -9.04243359E-04
  1.12037874E-03  1.73701960E-04 -3.56667717E-06 -1.51256127E-04  6.73814462E-14
  6.58561001E-16 -6.12795346E-01 -1.73463575E-02  2.62637760E-06 -6.65560540E-04
  6.27639495E-05  9.54295095E-03 -2.13224034E-05  1.98820396E-03 -5.09552871E-04
 -1.54124187E-04  3.98703494E-16 -8.52347908E-05 -2.66950922E-04 -3.56667717E-06
  1.44499480E-02  4.09033726E-04 -1.56941715E-05  1.11379776E-04  6.27639495E-05
 -2.25026422E-04  4.68826075E-05 -9.04243359E-04 -5.09552871E-04  3.63430718E-06
  8.52347908E-05 -8.51504332E-16 -6.29480464E-06  1.51256127E-04 -1.44499480E-02
 -4.09033729E-04 -1.56941714E-05  1.11379776E-04  6.27639495E-05  2.25026426E-04
  4.68826084E-05 -9.04243359E-04 -5.09552871E-04 -3.63430705E-06 -8.52347908E-05
  7.93908145E-16  6.29480450E-06 -1.51256127E-04  1.35413117E-14 -5.08818741E-13
 -2.37955073E-04  1.34638922E-04 -2.28970503E-04 -9.86010480E-13  1.45841510E-03
 -8.25195420E-04  1.40334910E-03  7.56601173E-12  4.88349580E-03 -2.76316282E-03
  4.69910758E-03  9.47407233E-13 -3.79508430E-16 -1.66292054E-16 -3.27323062E-13
 -3.76890135E-16  4.51714563E-01  1.27866544E-02  8.53238421E-05 -4.82776432E-05
 -4.90609778E-04 -7.03446909E-03 -6.92706706E-04  3.91944929E-04  1.46558013E-03
 -2.27221503E-04  1.15871609E-04 -6.55620760E-05 -4.06433358E-14 -8.36699004E-17
 -2.65616579E-01 -7.51879104E-03  8.53238421E-05  2.88487691E-04  8.21022337E-05
  4.13639889E-03 -6.92706706E-04 -8.61788426E-04 -6.66551887E-04 -6.68052385E-05
  2.06564180E-16  1.11496596E-04 -1.15710068E-04  1.15871609E-04 -4.51714562E-01
 -1.27866544E-02  8.53238421E-05 -4.82776432E-05 -4.90609777E-04  7.03446908E-03
 -6.92706706E-04  3.91944929E-04  1.46558013E-03  2.27221502E-04 -1.15871609E-04
  6.55620760E-05 -4.01557745E-14 -1.36611984E-16  2.65616580E-01  7.51879104E-03
  8.53238421E-05  2.88487691E-04  8.21022337E-05 -4.13639890E-03 -6.92706706E-04
 -8.61788427E-04 -6.66551887E-04  6.68052387E-05 -2.86953788E-16 -1.11496596E-04
  1.15710067E-04 -1.15871609E-04  4.69439384E-01  1.32883897E-02 -5.09860807E-04
 -4.82776432E-05  8.21022337E-05 -7.31049452E-03  1.52308801E-03  3.91944929E-04
 -6.66551887E-04  1.18068722E-04  1.11496596E-04 -7.31633931E-16 -2.04501025E-04
 -6.55620760E-05 -4.69439384E-01 -1.32883897E-02 -5.09860808E-04 -4.82776432E-05
  8.21022337E-05  7.31049451E-03  1.52308801E-03  3.91944929E-04 -6.66551887E-04
 -1.18068722E-04 -1.11496596E-04 -2.97820652E-16  2.04501025E-04  6.55620760E-05
 -9.77697149E-16  3.75688029E-14  4.75823427E-14 -9.83514396E-14 -2.42498978E-14
  7.36230303E-14 -2.92315432E-13  6.03378315E-13  1.47704410E-13 -5.59335953E-13
 -9.80219671E-13  2.02434007E-12  4.97892553E-13 -5.55094574E-05 -2.76394631E-16
  1.86220358E-16 -1.98836377E-03  2.75026023E-16 -1.60294731E-02 -4.29659839E-04
 -1.65637271E-14  3.53160226E-14  2.08542487E-05  1.55829530E-04  1.39003759E-13
 -2.87362727E-13 -4.77378837E-05  1.72866315E-05 -2.30181899E-14  4.79497239E-14
 -2.46461346E-04 -2.65581214E-16  5.05269255E-01  1.35434213E-02 -1.66184678E-14
 -6.57352282E-04  9.19535127E-15 -4.91194379E-03  1.38966534E-13  1.50475844E-03
 -7.14543434E-14  3.74008758E-04 -5.66875897E-16  1.23608145E-14  4.13258200E-04
 -2.29692509E-14 -1.60294732E-02 -4.29659841E-04 -1.67967612E-14  3.58647741E-14
 -2.08542488E-05  1.55829532E-04  1.38838290E-13 -2.88168515E-13  4.77378840E-05
  1.72866316E-05  2.32899585E-14 -4.83517566E-14 -2.46461346E-04  4.23995295E-16
  5.05269255E-01  1.35434213E-02 -1.68028479E-14  6.57352281E-04  9.20758367E-15
 -4.91194378E-03  1.38878410E-13 -1.50475844E-03 -7.09540220E-14  3.74008758E-04
  1.72190910E-16 -1.19607358E-14  4.13258200E-04  2.26733342E-14 -4.89239782E-01
 -1.31137614E-02  6.36498033E-04  3.54089078E-14  8.53596542E-15  4.75611425E-03
 -1.45702056E-03 -2.87245121E-13 -7.05579213E-14 -3.75686192E-04  1.20119779E-14
 -3.34363964E-16  3.92328851E-04  4.77944202E-14 -4.89239782E-01 -1.31137614E-02