 Entering Gaussian System, Link 0=g16
 Initial command:
 /opt/g16/l1.exe "/scratch/1488/Gau-450215.inp" -scrdir="/scratch/1488/"
 Entering Link 1 = /opt/g16/l1.exe PID=    450216.
  
 Copyright (c) 1988-2017, Gaussian, Inc.  All Rights Reserved.
  
 This is part of the Gaussian(R) 16 program.  It is based on
 the Gaussian(R) 09 system (copyright 2009, Gaussian, Inc.),
 the Gaussian(R) 03 system (copyright 2003, Gaussian, Inc.),
 the Gaussian(R) 98 system (copyright 1998, Gaussian, Inc.),
 the Gaussian(R) 94 system (copyright 1995, Gaussian, Inc.),
 the Gaussian 92(TM) system (copyright 1992, Gaussian, Inc.),
 the Gaussian 90(TM) system (copyright 1990, Gaussian, Inc.),
 the Gaussian 88(TM) system (copyright 1988, Gaussian, Inc.),
 the Gaussian 86(TM) system (copyright 1986, Carnegie Mellon
 University), and the Gaussian 82(TM) system (copyright 1983,
 Carnegie Mellon University). Gaussian is a federally registered
 trademark of Gaussian, Inc.
  
 This software contains proprietary and confidential information,
 including trade secrets, belonging to Gaussian, Inc.
  
 This software is provided under written license and may be
 used, copied, transmitted, or stored only in accord with that
 written license.
  
 The following legend is applicable only to US Government
 contracts under FAR:
  
                    RESTRICTED RIGHTS LEGEND
  
 Use, reproduction and disclosure by the US Government is
 subject to restrictions as set forth in subparagraphs (a)
 and (c) of the Commercial Computer Software - Restricted
 Rights clause in FAR 52.227-19.
  
 Gaussian, Inc.
 340 Quinnipiac St., Bldg. 40, Wallingford CT 06492
  
  
 ---------------------------------------------------------------
 Warning -- This program may not be used in any manner that
 competes with the business of Gaussian, Inc. or will provide
 assistance to any competitor of Gaussian, Inc.  The licensee
 of this program is prohibited from giving any competitor of
 Gaussian, Inc. access to this program.  By using this program,
 the user acknowledges that Gaussian, Inc. is engaged in the
 business of creating and licensing software in the field of
 computational chemistry and represents and warrants to the
 licensee that it is not a competitor of Gaussian, Inc. and that
 it will not use this program in any manner prohibited above.
 ---------------------------------------------------------------
  

 Cite this work as:
 Gaussian 16, Revision B.01,
 M. J. Frisch, G. W. Trucks, H. B. Schlegel, G. E. Scuseria, 
 M. A. Robb, J. R. Cheeseman, G. Scalmani, V. Barone, 
 G. A. Petersson, H. Nakatsuji, X. Li, M. Caricato, A. V. Marenich, 
 J. Bloino, B. G. Janesko, R. Gomperts, B. Mennucci, H. P. Hratchian, 
 J. V. Ortiz, A. F. Izmaylov, J. L. Sonnenberg, D. Williams-Young, 
 F. Ding, F. Lipparini, F. Egidi, J. Goings, B. Peng, A. Petrone, 
 T. Henderson, D. Ranasinghe, V. G. Zakrzewski, J. Gao, N. Rega, 
 G. Zheng, W. Liang, M. Hada, M. Ehara, K. Toyota, R. Fukuda, 
 J. Hasegawa, M. Ishida, T. Nakajima, Y. Honda, O. Kitao, H. Nakai, 
 T. Vreven, K. Throssell, J. A. Montgomery, Jr., J. E. Peralta, 
 F. Ogliaro, M. J. Bearpark, J. J. Heyd, E. N. Brothers, K. N. Kudin, 
 V. N. Staroverov, T. A. Keith, R. Kobayashi, J. Normand, 
 K. Raghavachari, A. P. Rendell, J. C. Burant, S. S. Iyengar, 
 J. Tomasi, M. Cossi, J. M. Millam, M. Klene, C. Adamo, R. Cammi, 
 J. W. Ochterski, R. L. Martin, K. Morokuma, O. Farkas, 
 J. B. Foresman, and D. J. Fox, Gaussian, Inc., Wallingford CT, 2016.
 
 ******************************************
 Gaussian 16:  ES64L-G16RevB.01 20-Dec-2017
                 4-Feb-2021 
 ******************************************
 %chk=SF6camb3lyp_N-2.chk
 %mem=32GB
 %nprocshared=16
 Will use up to   16 processors via shared memory.
 -------------------------------
 # UCAM-B3LYP/6-31g(d) NoSymm 5D
 -------------------------------
 1/38=1,172=1/1;
 2/12=2,15=1,17=6,18=5,40=1/2;
 3/5=1,6=6,7=1,8=1,11=2,25=1,30=1,74=-40,116=2/1,2,3;
 4//1;
 5/5=2,38=5/2;
 6/7=2,8=2,9=2,10=2,28=1/1;
 99/5=1,9=1/99;
 -----------------------------------------------------------------
 Single point of SF6^+2 at the UCAM-B3LYP/6-31G(d) level of theory
 -----------------------------------------------------------------
 Symbolic Z-matrix:
 Charge =  2 Multiplicity = 3
 S                     0.        0.        0. 
 F                     0.        0.        1.60007 
 F                     0.        1.60007   0. 
 F                     0.        0.       -1.60007 
 F                     0.       -1.60007   0. 
 F                     1.60007   0.        0. 
 F                    -1.60007   0.        0. 
 
                          Input orientation:                          
 ---------------------------------------------------------------------
 Center     Atomic      Atomic             Coordinates (Angstroms)
 Number     Number       Type             X           Y           Z
 ---------------------------------------------------------------------
      1         16           0        0.000000    0.000000    0.000000
      2          9           0        0.000000    0.000000    1.600072
      3          9           0        0.000000    1.600072    0.000000
      4          9           0        0.000000    0.000000   -1.600072
      5          9           0        0.000000   -1.600072    0.000000
      6          9           0        1.600072    0.000000    0.000000
      7          9           0       -1.600072    0.000000    0.000000
 ---------------------------------------------------------------------
                    Distance matrix (angstroms):
                    1          2          3          4          5
     1  S    0.000000
     2  F    1.600072   0.000000
     3  F    1.600072   2.262844   0.000000
     4  F    1.600072   3.200144   2.262844   0.000000
     5  F    1.600072   2.262844   3.200144   2.262844   0.000000
     6  F    1.600072   2.262844   2.262844   2.262844   2.262844
     7  F    1.600072   2.262844   2.262844   2.262844   2.262844
                    6          7
     6  F    0.000000
     7  F    3.200144   0.000000
 Symmetry turned off by external request.
 Stoichiometry    F6S(2+,3)
 Framework group  OH[O(S),3C4(F.F)]
 Deg. of freedom     1
 Full point group                 OH      NOp  48
 Rotational constants (GHZ):           2.5975329           2.5975329           2.5975329
 Standard basis: 6-31G(d) (5D, 7F)
   102 basis functions,   220 primitive gaussians,   109 cartesian basis functions
    35 alpha electrons       33 beta electrons
       nuclear repulsion energy       553.2324554223 Hartrees.
 NAtoms=    7 NActive=    7 NUniq=    7 SFac= 1.00D+00 NAtFMM=   60 NAOKFM=F Big=F
 Integral buffers will be    131072 words long.
 Raffenetti 2 integral format.
 Two-electron integral symmetry is turned off.
 One-electron integrals computed using PRISM.
 NBasis=   102 RedAO= T EigKep=  1.70D-02  NBF=   102
 NBsUse=   102 1.00D-06 EigRej= -1.00D+00 NBFU=   102
 ExpMin= 1.17D-01 ExpMax= 2.19D+04 ExpMxC= 3.30D+03 IAcc=3 IRadAn=         5 AccDes= 0.00D+00
 Harris functional with IExCor=20419 and IRadAn=       5 diagonalized for initial guess.
 HarFok:  IExCor=20419 AccDes= 0.00D+00 IRadAn=         5 IDoV= 1 UseB2=F ITyADJ=14
 ICtDFT=  3500011 ScaDFX=  1.000000  1.000000  1.000000  1.000000
 FoFCou: FMM=F IPFlag=           0 FMFlag=      100000 FMFlg1=           0
         NFxFlg=           0 DoJE=T BraDBF=F KetDBF=T FulRan=T
         wScrn=  0.000000 ICntrl=       500 IOpCl=  0 I1Cent=   200000004 NGrid=           0
         NMat0=    1 NMatS0=      1 NMatT0=    0 NMatD0=    1 NMtDS0=    0 NMtDT0=    0
 Symmetry not used in FoFCou.
 Initial guess <Sx>= 0.0000 <Sy>= 0.0000 <Sz>= 1.0000 <S**2>= 2.0000 S= 1.0000
 Keep R1 and R2 ints in memory in canonical form, NReq=70155054.
 Requested convergence on RMS density matrix=1.00D-08 within 128 cycles.
 Requested convergence on MAX density matrix=1.00D-06.
 Requested convergence on             energy=1.00D-06.
 No special actions if energy rises.
 Integral accuracy reduced to 1.0D-05 until final iterations.
 Initial convergence to 1.0D-05 achieved.  Increase integral accuracy.
 SCF Done:  E(UCAM-B3LYP) =  -995.601444306     A.U. after   32 cycles
            NFock= 32  Conv=0.43D-08     -V/T= 2.0044
 <Sx>= 0.0000 <Sy>= 0.0000 <Sz>= 1.0000 <S**2>= 2.0105 S= 1.0035
 <L.S>=  0.00000000000    
 Annihilation of the first spin contaminant:
 S**2 before annihilation     2.0105,   after     2.0001

 **********************************************************************

            Population analysis using the SCF Density.

 **********************************************************************

 Alpha  occ. eigenvalues --  -89.97581 -25.47292 -25.47289 -25.44312 -25.44312
 Alpha  occ. eigenvalues --  -25.44312 -25.44305  -8.97997  -6.94787  -6.94691
 Alpha  occ. eigenvalues --   -6.94691  -2.05935  -1.95811  -1.93641  -1.93641
 Alpha  occ. eigenvalues --   -1.90448  -1.88977  -1.46409  -1.31334  -1.29769
 Alpha  occ. eigenvalues --   -1.29769  -1.21621  -1.21621  -1.18279  -1.16128
 Alpha  occ. eigenvalues --   -1.14683  -1.13702  -1.13702  -1.13209  -1.12956
 Alpha  occ. eigenvalues --   -1.10247  -1.10247  -1.09988  -1.09988  -1.06421
 Alpha virt. eigenvalues --   -0.60347  -0.42331  -0.41234  -0.41234  -0.15863
 Alpha virt. eigenvalues --   -0.10644  -0.09978  -0.09978  -0.03198  -0.03198
 Alpha virt. eigenvalues --   -0.01960   0.39853   0.40474   0.58120   0.58120
 Alpha virt. eigenvalues --    0.60250   0.66973   0.67513   0.67513   0.68703
 Alpha virt. eigenvalues --    0.69451   0.70273   0.70273   0.76225   0.77257
 Alpha virt. eigenvalues --    0.90756   0.90756   0.93054   0.99811   1.00615
 Alpha virt. eigenvalues --    1.02415   1.03122   1.03122   1.17209   1.17964
 Alpha virt. eigenvalues --    1.17964   1.19972   1.29391   1.31183   1.31183
 Alpha virt. eigenvalues --    1.33050   1.34234   1.42197   1.42225   1.44706
 Alpha virt. eigenvalues --    1.46890   1.47880   1.47880   1.48880   1.50215
 Alpha virt. eigenvalues --    1.50215   1.52078   1.52078   1.54227   1.56519
 Alpha virt. eigenvalues --    1.56519   1.58298   1.68322   1.69594   1.69594
 Alpha virt. eigenvalues --    1.85726   1.99976   2.01370   2.01370   2.05170
 Alpha virt. eigenvalues --    2.53055   2.53676
  Beta  occ. eigenvalues --  -89.97623 -25.45829 -25.45826 -25.43201 -25.43200
  Beta  occ. eigenvalues --  -25.43200 -25.43194  -8.98050  -6.94861  -6.94750
  Beta  occ. eigenvalues --   -6.94750  -2.04059  -1.92631  -1.91056  -1.91056
  Beta  occ. eigenvalues --   -1.86990  -1.86065  -1.45059  -1.29025  -1.28306
  Beta  occ. eigenvalues --   -1.28306  -1.17325  -1.15510  -1.15510  -1.14771
  Beta  occ. eigenvalues --   -1.13518  -1.08834  -1.08834  -1.06723  -1.06723
  Beta  occ. eigenvalues --   -1.05196  -1.03736  -1.02164
  Beta virt. eigenvalues --   -0.87640  -0.87640  -0.59403  -0.41001  -0.40462
  Beta virt. eigenvalues --   -0.40462  -0.15626  -0.09707  -0.09452  -0.09452
  Beta virt. eigenvalues --   -0.01951  -0.01951  -0.01930   0.40297   0.40747
  Beta virt. eigenvalues --    0.60418   0.60418   0.60693   0.69317   0.69317
  Beta virt. eigenvalues --    0.70036   0.70166   0.70238   0.70963   0.70963
  Beta virt. eigenvalues --    0.77129   0.78040   0.93432   0.93432   0.93588
  Beta virt. eigenvalues --    1.01240   1.01625   1.04197   1.04197   1.04527
  Beta virt. eigenvalues --    1.18893   1.18893   1.19031   1.21756   1.31501
  Beta virt. eigenvalues --    1.32934   1.32934   1.35200   1.36028   1.44007
  Beta virt. eigenvalues --    1.44118   1.46166   1.49079   1.49670   1.49670
  Beta virt. eigenvalues --    1.50561   1.50900   1.50900   1.53795   1.53795
  Beta virt. eigenvalues --    1.54586   1.57837   1.57837   1.58533   1.69917
  Beta virt. eigenvalues --    1.70614   1.70614   1.86575   2.01132   2.02290
  Beta virt. eigenvalues --    2.02290   2.06494   2.53903   2.54648
          Condensed to atoms (all electrons):
               1          2          3          4          5          6
     1  S   12.755629   0.227364   0.227364   0.227364   0.227364   0.209228
     2  F    0.227364   8.847718  -0.024959   0.000211  -0.024959  -0.015295
     3  F    0.227364  -0.024959   8.847718  -0.024959   0.000211  -0.015295
     4  F    0.227364   0.000211  -0.024959   8.847718  -0.024959  -0.015295
     5  F    0.227364  -0.024959   0.000211  -0.024959   8.847718  -0.015295
     6  F    0.209228  -0.015295  -0.015295  -0.015295  -0.015295   8.820406
     7  F    0.209228  -0.015295  -0.015295  -0.015295  -0.015295   0.000204
               7
     1  S    0.209228
     2  F   -0.015295
     3  F   -0.015295
     4  F   -0.015295
     5  F   -0.015295
     6  F    0.000204
     7  F    8.820406
          Atomic-Atomic Spin Densities.
               1          2          3          4          5          6
     1  S   -0.098251  -0.004295  -0.004295  -0.004295  -0.004295  -0.003865
     2  F   -0.004295   0.346537   0.000369  -0.000071   0.000369  -0.007043
     3  F   -0.004295   0.000369   0.346537   0.000369  -0.000071  -0.007043
     4  F   -0.004295  -0.000071   0.000369   0.346537   0.000369  -0.007043
     5  F   -0.004295   0.000369  -0.000071   0.000369   0.346537  -0.007043
     6  F   -0.003865  -0.007043  -0.007043  -0.007043  -0.007043   0.435983
     7  F   -0.003865  -0.007043  -0.007043  -0.007043  -0.007043  -0.000009
               7
     1  S   -0.003865
     2  F   -0.007043
     3  F   -0.007043
     4  F   -0.007043
     5  F   -0.007043
     6  F   -0.000009
     7  F    0.435983
 Mulliken charges and spin densities:
               1          2
     1  S    1.916458  -0.123161
     2  F    0.005215   0.328822
     3  F    0.005215   0.328822
     4  F    0.005215   0.328822
     5  F    0.005215   0.328822
     6  F    0.031341   0.403937
     7  F    0.031341   0.403937
 Sum of Mulliken charges =   2.00000   2.00000
 Mulliken charges and spin densities with hydrogens summed into heavy atoms:
               1          2
     1  S    1.916458  -0.123161
     2  F    0.005215   0.328822
     3  F    0.005215   0.328822
     4  F    0.005215   0.328822
     5  F    0.005215   0.328822
     6  F    0.031341   0.403937
     7  F    0.031341   0.403937
 Electronic spatial extent (au):  <R**2>=            560.2915
 Charge=              2.0000 electrons
 Dipole moment (field-independent basis, Debye):
    X=              0.0000    Y=             -0.0000    Z=              0.0000  Tot=              0.0000
 Quadrupole moment (field-independent basis, Debye-Ang):
   XX=            -28.8909   YY=            -30.3328   ZZ=            -30.3328
   XY=             -0.0000   XZ=             -0.0000   YZ=             -0.0000
 Traceless Quadrupole moment (field-independent basis, Debye-Ang):
   XX=              0.9612   YY=             -0.4806   ZZ=             -0.4806
   XY=             -0.0000   XZ=             -0.0000   YZ=             -0.0000
 Octapole moment (field-independent basis, Debye-Ang**2):
  XXX=              0.0000  YYY=             -0.0000  ZZZ=              0.0000  XYY=              0.0000
  XXY=             -0.0000  XXZ=              0.0000  XZZ=             -0.0000  YZZ=             -0.0000
  YYZ=              0.0000  XYZ=              0.0000
 Hexadecapole moment (field-independent basis, Debye-Ang**3):
 XXXX=           -127.5625 YYYY=           -130.6873 ZZZZ=           -130.6873 XXXY=             -0.0000
 XXXZ=             -0.0000 YYYX=             -0.0000 YYYZ=             -0.0000 ZZZX=             -0.0000
 ZZZY=             -0.0000 XXYY=            -50.1526 XXZZ=            -50.1526 YYZZ=            -51.9544
 XXYZ=             -0.0000 YYXZ=              0.0000 ZZXY=             -0.0000
 N-N= 5.532324554223D+02 E-N=-3.435512228305D+03  KE= 9.912088388154D+02
                          Isotropic Fermi Contact Couplings
        Atom                 a.u.       MegaHertz       Gauss      10(-4) cm-1
     1  S(33)             -0.10241     -17.58807      -6.27586      -5.86675
     2  F(19)              0.05808     122.18471      43.59854      40.75643
     3  F(19)              0.05808     122.18463      43.59851      40.75640
     4  F(19)              0.05808     122.18471      43.59854      40.75643
     5  F(19)              0.05808     122.18462      43.59851      40.75640
     6  F(19)              0.06488     136.48781      48.70225      45.52743
     7  F(19)              0.06488     136.48781      48.70225      45.52743
 --------------------------------------------------------
       Center         ----  Spin Dipole Couplings  ----
                      3XX-RR        3YY-RR        3ZZ-RR
 --------------------------------------------------------
     1   Atom       -0.027138      0.013569      0.013569
     2   Atom        2.206441     -1.107548     -1.098893
     3   Atom        2.206440     -1.098893     -1.107548
     4   Atom        2.206441     -1.107548     -1.098893
     5   Atom        2.206441     -1.098893     -1.107548
     6   Atom       -1.494259      0.747130      0.747129
     7   Atom       -1.494259      0.747130      0.747129
 --------------------------------------------------------
                        XY            XZ            YZ
 --------------------------------------------------------
     1   Atom       -0.000000     -0.000000     -0.000000
     2   Atom       -0.000000     -0.000001     -0.000000
     3   Atom       -0.000001      0.000002     -0.000000
     4   Atom       -0.000000     -0.000001     -0.000000
     5   Atom       -0.000001      0.000002     -0.000000
     6   Atom       -0.000001     -0.000001      0.000000
     7   Atom       -0.000001     -0.000000     -0.000000
 --------------------------------------------------------


 ---------------------------------------------------------------------------------
              Anisotropic Spin Dipole Couplings in Principal Axis System
 ---------------------------------------------------------------------------------

       Atom             a.u.   MegaHertz   Gauss  10(-4) cm-1        Axes

              Baa    -0.0271    -1.113    -0.397    -0.371  1.0000  0.0000  0.0000
     1 S(33)  Bbb     0.0136     0.556     0.199     0.186 -0.0000  0.0048  1.0000
              Bcc     0.0136     0.556     0.199     0.186 -0.0000  1.0000 -0.0048
 
              Baa    -1.1075  -556.239  -198.480  -185.541  0.0000  1.0000  0.0000
     2 F(19)  Bbb    -1.0989  -551.892  -196.929  -184.091  0.0000 -0.0000  1.0000
              Bcc     2.2064  1108.131   395.409   369.633  1.0000 -0.0000 -0.0000
 
              Baa    -1.1075  -556.239  -198.480  -185.541 -0.0000  0.0000  1.0000
     3 F(19)  Bbb    -1.0989  -551.892  -196.929  -184.091  0.0000  1.0000 -0.0000
              Bcc     2.2064  1108.131   395.409   369.633  1.0000 -0.0000  0.0000
 
              Baa    -1.1075  -556.239  -198.480  -185.541  0.0000  1.0000  0.0000
     4 F(19)  Bbb    -1.0989  -551.892  -196.929  -184.091  0.0000 -0.0000  1.0000
              Bcc     2.2064  1108.131   395.409   369.633  1.0000 -0.0000 -0.0000
 
              Baa    -1.1075  -556.239  -198.480  -185.541 -0.0000  0.0000  1.0000
     5 F(19)  Bbb    -1.0989  -551.892  -196.929  -184.091  0.0000  1.0000 -0.0000
              Bcc     2.2064  1108.131   395.409   369.633  1.0000 -0.0000  0.0000
 
              Baa    -1.4943  -750.455  -267.781  -250.325  1.0000  0.0000  0.0000
     6 F(19)  Bbb     0.7471   375.227   133.890   125.162 -0.0000 -0.1267  0.9919
              Bcc     0.7471   375.228   133.891   125.163 -0.0000  0.9919  0.1267
 
              Baa    -1.4943  -750.455  -267.781  -250.325  1.0000  0.0000  0.0000
     7 F(19)  Bbb     0.7471   375.227   133.890   125.162 -0.0000  0.2836  0.9589
              Bcc     0.7471   375.228   133.891   125.163 -0.0000  0.9589 -0.2836
 

 ---------------------------------------------------------------------------------

 1\1\GINC-N001\SP\UCAM-B3LYP\6-31G(d)\F6S1(2+,3)\JORGE\04-Feb-2021\0\\#
  UCAM-B3LYP/6-31g(d) NoSymm 5D\\Single point of SF6^+2 at the UCAM-B3L
 YP/6-31G(d) level of theory\\2,3\S,0,0.,0.,0.\F,0,0.,0.,1.600072\F,0,0
 .,1.600072,0.\F,0,0.,0.,-1.600072\F,0,0.,-1.600072,0.\F,0,1.600072,0.,
 0.\F,0,-1.600072,0.,0.\\Version=ES64L-G16RevB.01\HF=-995.6014443\S2=2.
 010513\S2-1=0.\S2A=2.000067\RMSD=4.250e-09\Dipole=0.,-0.0000003,0.0000
 003\Quadrupole=0.7146588,-0.3573296,-0.3573292,-0.0000003,0.,0.\PG=OH 
 [O(S1),3C4(F1.F1)]\\@


 The juvenile sea squirt wanders through the sea searching
 for a suitable rock or hunk of coral to cling to and make
 its home for life.  For this task it has a rudimentary
 nervous system.  When it finds its spot and takes root, it
 doesn't need its brain any more so it eats it.
 It's rather like getting tenure.

                               -- source unknown
 Job cpu time:       0 days  0 hours  1 minutes  1.8 seconds.
 Elapsed time:       0 days  0 hours  0 minutes  5.4 seconds.
 File lengths (MBytes):  RWF=     10 Int=      0 D2E=      0 Chk=      2 Scr=      1
 Normal termination of Gaussian 16 at Thu Feb  4 18:22:51 2021.
