Single point of SF6^+3 at the UCAM-B3LYP/6-31G(d) level of theory       
SP        UCAM-B3LYP                                                  6-31G(d)            
Number of atoms                            I                7
Info1-9                                    I   N=           9
          16          16           0           0           0         110
           1          18        4002
Full Title                                 C   N=           6
Single point of SF6^+3 at the UCAM-B3LYP/6-31G(d) level of t
heory       
Route                                      C   N=           3
# UCAM-B3LYP/6-31g(d) NoSymm 5D     
Charge                                     I                3
Multiplicity                               I                4
Number of electrons                        I               67
Number of alpha electrons                  I               35
Number of beta electrons                   I               32
Number of basis functions                  I              102
Number of independent functions            I              102
Number of point charges in /Mol/           I                0
Number of translation vectors              I                0
Atomic numbers                             I   N=           7
          16           9           9           9           9           9
           9
Nuclear charges                            R   N=           7
  1.60000000E+01  9.00000000E+00  9.00000000E+00  9.00000000E+00  9.00000000E+00
  9.00000000E+00  9.00000000E+00
Current cartesian coordinates              R   N=          21
  0.00000000E+00  0.00000000E+00  0.00000000E+00  0.00000000E+00  0.00000000E+00
  3.02369786E+00  0.00000000E+00  3.02369786E+00  0.00000000E+00  0.00000000E+00
  0.00000000E+00 -3.02369786E+00  0.00000000E+00 -3.02369786E+00  0.00000000E+00
  3.02369786E+00  0.00000000E+00  0.00000000E+00 -3.02369786E+00  0.00000000E+00
  0.00000000E+00
Number of symbols in /Mol/                 I                0
Force Field                                I                0
Atom Types                                 C   N=           7
                                                            
                        
Int Atom Types                             I   N=           7
           0           0           0           0           0           0
           0
MM charges                                 R   N=           7
  0.00000000E+00  0.00000000E+00  0.00000000E+00  0.00000000E+00  0.00000000E+00
  0.00000000E+00  0.00000000E+00
Integer atomic weights                     I   N=           7
          32          19          19          19          19          19
          19
Real atomic weights                        R   N=           7
  3.19720718E+01  1.89984032E+01  1.89984032E+01  1.89984032E+01  1.89984032E+01
  1.89984032E+01  1.89984032E+01
Atom fragment info                         I   N=           7
           0           0           0           0           0           0
           0
Atom residue num                           I   N=           7
           0           0           0           0           0           0
           0
Nuclear spins                              I   N=           7
           0           1           1           1           1           1
           1
Nuclear ZEff                               R   N=           7
 -1.36000000E+01 -6.75000000E+00 -6.75000000E+00 -6.75000000E+00 -6.75000000E+00
 -6.75000000E+00 -6.75000000E+00
Nuclear ZNuc                               R   N=           7
  1.60000000E+01  9.00000000E+00  9.00000000E+00  9.00000000E+00  9.00000000E+00
  9.00000000E+00  9.00000000E+00
Nuclear QMom                               R   N=           7
  0.00000000E+00  0.00000000E+00  0.00000000E+00  0.00000000E+00  0.00000000E+00
  0.00000000E+00  0.00000000E+00
Nuclear GFac                               R   N=           7
  0.00000000E+00  2.62886700E+00  2.62886700E+00  2.62886700E+00  2.62886700E+00
  2.62886700E+00  2.62886700E+00
MicOpt                                     I   N=           7
          -1          -1          -1          -1          -1          -1
          -1
Number of residues                         I                0
Number of secondary structures             I                0
Number of contracted shells                I               29
Number of primitive shells                 I               83
Pure/Cartesian d shells                    I                0
Pure/Cartesian f shells                    I                0
Highest angular momentum                   I                2
Largest degree of contraction              I                6
Shell types                                I   N=          29
           0          -1          -1          -1          -2           0
          -1          -1          -2           0          -1          -1
          -2           0          -1          -1          -2           0
          -1          -1          -2           0          -1          -1
          -2           0          -1          -1          -2
Number of primitives per shell             I   N=          29
           6           6           3           1           1           6
           3           1           1           6           3           1
           1           6           3           1           1           6
           3           1           1           6           3           1
           1           6           3           1           1
Shell to atom map                          I   N=          29
           1           1           1           1           1           2
           2           2           2           3           3           3
           3           4           4           4           4           5
           5           5           5           6           6           6
           6           7           7           7           7
Primitive exponents                        R   N=          83
  2.19171000E+04  3.30149000E+03  7.54146000E+02  2.12711000E+02  6.79896000E+01
  2.30515000E+01  4.23735000E+02  1.00710000E+02  3.21599000E+01  1.18079000E+01
  4.63110000E+00  1.87025000E+00  2.61584000E+00  9.22167000E-01  3.41287000E-01
  1.17167000E-01  6.50000000E-01  7.00171309E+03  1.05136609E+03  2.39285690E+02
  6.73974453E+01  2.15199573E+01  7.40310130E+00  2.08479528E+01  4.80830834E+00
  1.34406986E+00  3.58151393E-01  8.00000000E-01  7.00171309E+03  1.05136609E+03
  2.39285690E+02  6.73974453E+01  2.15199573E+01  7.40310130E+00  2.08479528E+01
  4.80830834E+00  1.34406986E+00  3.58151393E-01  8.00000000E-01  7.00171309E+03
  1.05136609E+03  2.39285690E+02  6.73974453E+01  2.15199573E+01  7.40310130E+00
  2.08479528E+01  4.80830834E+00  1.34406986E+00  3.58151393E-01  8.00000000E-01
  7.00171309E+03  1.05136609E+03  2.39285690E+02  6.73974453E+01  2.15199573E+01
  7.40310130E+00  2.08479528E+01  4.80830834E+00  1.34406986E+00  3.58151393E-01
  8.00000000E-01  7.00171309E+03  1.05136609E+03  2.39285690E+02  6.73974453E+01
  2.15199573E+01  7.40310130E+00  2.08479528E+01  4.80830834E+00  1.34406986E+00
  3.58151393E-01  8.00000000E-01  7.00171309E+03  1.05136609E+03  2.39285690E+02
  6.73974453E+01  2.15199573E+01  7.40310130E+00  2.08479528E+01  4.80830834E+00
  1.34406986E+00  3.58151393E-01  8.00000000E-01
Contraction coefficients                   R   N=          83
  1.86924085E-03  1.42303065E-02  6.96962317E-02  2.38487108E-01  4.83307220E-01
  3.38074154E-01 -2.37677050E-03 -3.16930067E-02 -1.13317024E-01  5.60900118E-02
  5.92255124E-01  4.55006095E-01 -2.50373114E-01  6.69567631E-02  1.05450627E+00
  1.00000000E+00  1.00000000E+00  1.81961690E-03  1.39160796E-02  6.84053245E-02
  2.33185760E-01  4.71267439E-01  3.56618546E-01 -1.08506975E-01 -1.46451658E-01
  1.12868858E+00  1.00000000E+00  1.00000000E+00  1.81961690E-03  1.39160796E-02
  6.84053245E-02  2.33185760E-01  4.71267439E-01  3.56618546E-01 -1.08506975E-01
 -1.46451658E-01  1.12868858E+00  1.00000000E+00  1.00000000E+00  1.81961690E-03
  1.39160796E-02  6.84053245E-02  2.33185760E-01  4.71267439E-01  3.56618546E-01
 -1.08506975E-01 -1.46451658E-01  1.12868858E+00  1.00000000E+00  1.00000000E+00
  1.81961690E-03  1.39160796E-02  6.84053245E-02  2.33185760E-01  4.71267439E-01
  3.56618546E-01 -1.08506975E-01 -1.46451658E-01  1.12868858E+00  1.00000000E+00
  1.00000000E+00  1.81961690E-03  1.39160796E-02  6.84053245E-02  2.33185760E-01
  4.71267439E-01  3.56618546E-01 -1.08506975E-01 -1.46451658E-01  1.12868858E+00
  1.00000000E+00  1.00000000E+00  1.81961690E-03  1.39160796E-02  6.84053245E-02
  2.33185760E-01  4.71267439E-01  3.56618546E-01 -1.08506975E-01 -1.46451658E-01
  1.12868858E+00  1.00000000E+00  1.00000000E+00
P(S=P) Contraction coefficients            R   N=          83
  0.00000000E+00  0.00000000E+00  0.00000000E+00  0.00000000E+00  0.00000000E+00
  0.00000000E+00  4.06100998E-03  3.06812999E-02  1.30451999E-01  3.27204999E-01
  4.52850998E-01  2.56041999E-01 -1.45104895E-02  3.10262776E-01  7.54482456E-01
  1.00000000E+00  0.00000000E+00  0.00000000E+00  0.00000000E+00  0.00000000E+00
  0.00000000E+00  0.00000000E+00  0.00000000E+00  7.16287242E-02  3.45912103E-01
  7.22469956E-01  1.00000000E+00  0.00000000E+00  0.00000000E+00  0.00000000E+00
  0.00000000E+00  0.00000000E+00  0.00000000E+00  0.00000000E+00  7.16287242E-02
  3.45912103E-01  7.22469956E-01  1.00000000E+00  0.00000000E+00  0.00000000E+00
  0.00000000E+00  0.00000000E+00  0.00000000E+00  0.00000000E+00  0.00000000E+00
  7.16287242E-02  3.45912103E-01  7.22469956E-01  1.00000000E+00  0.00000000E+00
  0.00000000E+00  0.00000000E+00  0.00000000E+00  0.00000000E+00  0.00000000E+00
  0.00000000E+00  7.16287242E-02  3.45912103E-01  7.22469956E-01  1.00000000E+00
  0.00000000E+00  0.00000000E+00  0.00000000E+00  0.00000000E+00  0.00000000E+00
  0.00000000E+00  0.00000000E+00  7.16287242E-02  3.45912103E-01  7.22469956E-01
  1.00000000E+00  0.00000000E+00  0.00000000E+00  0.00000000E+00  0.00000000E+00
  0.00000000E+00  0.00000000E+00  0.00000000E+00  7.16287242E-02  3.45912103E-01
  7.22469956E-01  1.00000000E+00  0.00000000E+00
Coordinates of each shell                  R   N=          87
  0.00000000E+00  0.00000000E+00  0.00000000E+00  0.00000000E+00  0.00000000E+00
  0.00000000E+00  0.00000000E+00  0.00000000E+00  0.00000000E+00  0.00000000E+00
  0.00000000E+00  0.00000000E+00  0.00000000E+00  0.00000000E+00  0.00000000E+00
  0.00000000E+00  0.00000000E+00  3.02369786E+00  0.00000000E+00  0.00000000E+00
  3.02369786E+00  0.00000000E+00  0.00000000E+00  3.02369786E+00  0.00000000E+00
  0.00000000E+00  3.02369786E+00  0.00000000E+00  3.02369786E+00  0.00000000E+00
  0.00000000E+00  3.02369786E+00  0.00000000E+00  0.00000000E+00  3.02369786E+00
  0.00000000E+00  0.00000000E+00  3.02369786E+00  0.00000000E+00  0.00000000E+00
  0.00000000E+00 -3.02369786E+00  0.00000000E+00  0.00000000E+00 -3.02369786E+00
  0.00000000E+00  0.00000000E+00 -3.02369786E+00  0.00000000E+00  0.00000000E+00
 -3.02369786E+00  0.00000000E+00 -3.02369786E+00  0.00000000E+00  0.00000000E+00
 -3.02369786E+00  0.00000000E+00  0.00000000E+00 -3.02369786E+00  0.00000000E+00
  0.00000000E+00 -3.02369786E+00  0.00000000E+00  3.02369786E+00  0.00000000E+00
  0.00000000E+00  3.02369786E+00  0.00000000E+00  0.00000000E+00  3.02369786E+00
  0.00000000E+00  0.00000000E+00  3.02369786E+00  0.00000000E+00  0.00000000E+00
 -3.02369786E+00  0.00000000E+00  0.00000000E+00 -3.02369786E+00  0.00000000E+00
  0.00000000E+00 -3.02369786E+00  0.00000000E+00  0.00000000E+00 -3.02369786E+00
  0.00000000E+00  0.00000000E+00
Num ILSW                                   I              100
ILSW                                       I   N=         100
           1           0           0           0           2           0
           0           0           0           0       20419          -1
           5           0           0           0           0           0
           0           0           1           0           0           0
           1           1           0           0           0           0
           0           0      100000           0          -1           0
           0           0           0           0           0           0
           0           0           0           1           0           0
           0 -2000000000           1           0           0           0
           0           0           4          52           0           0
           0           0          40           0           0           0
           0           0           0           0           0           1
           0           0           0           0           0           0
           0           0           0           0           0           0
           0           0           0           0           0           0
           0           0           0           0           0           0
           0           0           0           0
Num RLSW                                   I               52
RLSW                                       R   N=          52
  1.00000000E+00  1.00000000E+00  1.00000000E+00  8.10000000E-01  1.00000000E+00
  0.00000000E+00  3.30000000E-01  1.90000000E-01  0.00000000E+00  4.60000000E-01
  0.00000000E+00  3.30000000E-01  1.90000000E-01  0.00000000E+00  4.60000000E-01
  0.00000000E+00  0.00000000E+00  1.00000000E+00  0.00000000E+00  0.00000000E+00
  0.00000000E+00  0.00000000E+00  1.00000000E+00  0.00000000E+00  0.00000000E+00
  0.00000000E+00  0.00000000E+00  1.00000000E+00  0.00000000E+00  0.00000000E+00
  0.00000000E+00  0.00000000E+00  1.00000000E+00  0.00000000E+00  0.00000000E+00
  0.00000000E+00  0.00000000E+00  0.00000000E+00  1.00000000E+00  1.00000000E+00
  0.00000000E+00  1.00000000E+00  0.00000000E+00  0.00000000E+00  0.00000000E+00
  0.00000000E+00  0.00000000E+00  0.00000000E+00  0.00000000E+00  0.00000000E+00
  0.00000000E+00  0.00000000E+00
MxBond                                     I                6
NBond                                      I   N=           7
           6           1           1           1           1           1
           1
IBond                                      I   N=          42
           2           3           4           5           6           7
           1           0           0           0           0           0
           1           0           0           0           0           0
           1           0           0           0           0           0
           1           0           0           0           0           0
           1           0           0           0           0           0
           1           0           0           0           0           0
RBond                                      R   N=          42
  1.00000000E+00  1.00000000E+00  1.00000000E+00  1.00000000E+00  1.00000000E+00
  1.00000000E+00  1.00000000E+00  0.00000000E+00  0.00000000E+00  0.00000000E+00
  0.00000000E+00  0.00000000E+00  1.00000000E+00  0.00000000E+00  0.00000000E+00
  0.00000000E+00  0.00000000E+00  0.00000000E+00  1.00000000E+00  0.00000000E+00
  0.00000000E+00  0.00000000E+00  0.00000000E+00  0.00000000E+00  1.00000000E+00
  0.00000000E+00  0.00000000E+00  0.00000000E+00  0.00000000E+00  0.00000000E+00
  1.00000000E+00  0.00000000E+00  0.00000000E+00  0.00000000E+00  0.00000000E+00
  0.00000000E+00  1.00000000E+00  0.00000000E+00  0.00000000E+00  0.00000000E+00
  0.00000000E+00  0.00000000E+00
Virial Ratio                               R      2.004156029005389E+00
SCF Energy                                 R     -9.944957070867396E+02
Total Energy                               R     -9.944957070867396E+02
S**2                                       R      3.767375638528520E+00
S**2 after annihilation                    R      3.750149024620278E+00
RMS Density                                R      3.858228177650710E-09
Job Status                                 I                1
Nuclear derivative order                   I                0
External E-field                           R   N=          35
  0.00000000E+00  0.00000000E+00  0.00000000E+00  0.00000000E+00  0.00000000E+00
  0.00000000E+00  0.00000000E+00  0.00000000E+00  0.00000000E+00  0.00000000E+00
  0.00000000E+00  0.00000000E+00  0.00000000E+00  0.00000000E+00  0.00000000E+00
  0.00000000E+00  0.00000000E+00  0.00000000E+00  0.00000000E+00  0.00000000E+00
  0.00000000E+00  0.00000000E+00  0.00000000E+00  0.00000000E+00  0.00000000E+00
  0.00000000E+00  0.00000000E+00  0.00000000E+00  0.00000000E+00  0.00000000E+00
  0.00000000E+00  0.00000000E+00  0.00000000E+00  0.00000000E+00  0.00000000E+00
IOpCl                                      I                1
IROHF                                      I                0
Alpha Orbital Energies                     R   N=         102
 -9.02606199E+01 -2.57688839E+01 -2.57688475E+01 -2.57688475E+01 -2.57688475E+01
 -2.57687755E+01 -2.57687755E+01 -9.26598309E+00 -7.23310281E+00 -7.23310281E+00
 -7.23310281E+00 -2.35536137E+00 -2.24251206E+00 -2.24251206E+00 -2.24251206E+00
 -2.19716996E+00 -2.19716996E+00 -1.75054672E+00 -1.59027027E+00 -1.59027027E+00
 -1.59027027E+00 -1.50049133E+00 -1.50049133E+00 -1.50049133E+00 -1.44224538E+00
 -1.44224538E+00 -1.42396088E+00 -1.42396088E+00 -1.42396088E+00 -1.41671610E+00
 -1.41671610E+00 -1.41671610E+00 -1.39108623E+00 -1.39108623E+00 -1.39108623E+00
 -8.95502981E-01 -7.06456737E-01 -7.06456736E-01 -7.06456736E-01 -4.05456285E-01
 -3.44512857E-01 -3.44512857E-01 -3.44512857E-01 -3.17759987E-01 -3.17759987E-01
 -3.17759987E-01  1.12979914E-01  1.12979914E-01  3.19385452E-01  3.19385452E-01
  3.19385452E-01  4.01017664E-01  4.01017664E-01  4.01017664E-01  4.41681407E-01
  4.42555303E-01  4.42555303E-01  4.42555303E-01  5.16542625E-01  5.16542625E-01
  6.52800257E-01  6.52800257E-01  6.52800257E-01  7.26049116E-01  7.26049116E-01
  7.68373228E-01  7.68373228E-01  7.68373228E-01  9.07251004E-01  9.07251004E-01
  9.07251004E-01  9.23643384E-01  1.02890736E+00  1.02890736E+00  1.02890736E+00
  1.05922298E+00  1.05922298E+00  1.14973873E+00  1.14973873E+00  1.16212755E+00
  1.19941920E+00  1.19941920E+00  1.19941920E+00  1.21538518E+00  1.21538518E+00
  1.21538518E+00  1.24645179E+00  1.24645179E+00  1.24645179E+00  1.29649643E+00
  1.29649643E+00  1.29649643E+00  1.42852842E+00  1.42852842E+00  1.42852842E+00
  1.58278772E+00  1.72614123E+00  1.72614123E+00  1.72614123E+00  1.78324101E+00
  2.25185048E+00  2.25185048E+00
Beta Orbital Energies                      R   N=         102
 -9.02612843E+01 -2.57501311E+01 -2.57500633E+01 -2.57500633E+01 -2.57500633E+01
 -2.57499924E+01 -2.57499924E+01 -9.26682836E+00 -7.23410109E+00 -7.23410109E+00
 -7.23410109E+00 -2.32752877E+00 -2.20057810E+00 -2.20057810E+00 -2.20057810E+00
 -2.14887947E+00 -2.14887947E+00 -1.72998203E+00 -1.56328197E+00 -1.56328197E+00
 -1.56328197E+00 -1.43141353E+00 -1.43141353E+00 -1.43141353E+00 -1.42283432E+00
 -1.42283432E+00 -1.33225907E+00 -1.33225907E+00 -1.33225907E+00 -1.32268789E+00
 -1.32268789E+00 -1.32268789E+00 -1.15902624E+00 -1.15902624E+00 -1.15902624E+00
 -8.81234481E-01 -6.92383576E-01 -6.92383576E-01 -6.92383576E-01 -4.01911415E-01
 -3.34668101E-01 -3.34668101E-01 -3.34668101E-01 -3.05474658E-01 -3.05474658E-01
 -3.05474658E-01  1.18132830E-01  1.18132830E-01  3.44013717E-01  3.44013717E-01
  3.44013717E-01  4.32704937E-01  4.32704937E-01  4.32704937E-01  4.49877453E-01
  4.58414404E-01  4.58414404E-01  4.58414404E-01  5.29078441E-01  5.29078441E-01
  6.81655505E-01  6.81655505E-01  6.81655505E-01  7.44085120E-01  7.44085120E-01
  7.88867925E-01  7.88867925E-01  7.88867925E-01  9.25763689E-01  9.25763689E-01
  9.25763689E-01  9.50143303E-01  1.05704588E+00  1.05704588E+00  1.05704588E+00
  1.08904863E+00  1.08904863E+00  1.17320172E+00  1.17320172E+00  1.19216662E+00
  1.22564562E+00  1.22564562E+00  1.22564562E+00  1.23307862E+00  1.23307862E+00
  1.23307862E+00  1.26585178E+00  1.26585178E+00  1.26585178E+00  1.31026211E+00
  1.31026211E+00  1.31026211E+00  1.44643310E+00  1.44643310E+00  1.44643310E+00
  1.59539065E+00  1.74120237E+00  1.74120237E+00  1.74120237E+00  1.80308740E+00
  2.26551588E+00  2.26551588E+00
Alpha MO coefficients                      R   N=       10404
  9.96583388E-01  1.27719594E-02 -2.50497185E-13  1.07008199E-12  5.25437267E-12
 -5.65007291E-03  1.60656381E-13 -6.91809039E-13 -3.39628489E-12 -1.17854260E-03
 -8.83260990E-16  5.73452757E-15  2.19982694E-14  2.68103532E-16  3.65138409E-17
  1.10810464E-17 -3.02110054E-16  8.02245653E-17 -2.77875488E-05 -5.18358196E-04
  8.70345617E-16 -3.31449162E-15  1.23859921E-04  1.32547214E-03 -7.62406803E-15
  3.16526538E-14 -1.02130966E-03  5.35362408E-04  9.34153221E-15 -3.93644767E-14
  5.57559775E-16  1.47910839E-18 -2.77875488E-05 -5.18358196E-04  8.01989123E-16
  1.23859921E-04 -1.69758894E-14  1.32547214E-03 -7.40601290E-15 -1.02130965E-03
  1.57460032E-13 -2.67681204E-04  2.59875695E-16 -1.93820841E-13 -4.63637446E-04
  8.94744447E-15 -2.77875488E-05 -5.18358195E-04  1.01027047E-15 -3.21713585E-15
 -1.23859921E-04  1.32547214E-03 -7.89453275E-15  3.15386310E-14  1.02130965E-03
  5.35362407E-04 -9.65591332E-15  3.88711707E-14  4.39864228E-17 -1.67262542E-16
 -2.77875488E-05 -5.18358195E-04  7.19284073E-16 -1.23859921E-04 -1.70975012E-14
  1.32547214E-03 -7.52448781E-15  1.02130965E-03  1.57586117E-13 -2.67681204E-04
 -1.97683452E-16  1.94282778E-13 -4.63637445E-04 -8.90525176E-15 -2.77875488E-05
 -5.18358196E-04  1.23859921E-04 -3.21296688E-15 -1.67905069E-14  1.32547214E-03
 -1.02130965E-03  3.17299475E-14  1.57223148E-13 -2.67681204E-04 -1.93650953E-13
 -6.88445194E-17  4.63637445E-04 -3.93855242E-14 -2.77875488E-05 -5.18358196E-04
 -1.23859921E-04 -3.31987488E-15 -1.69103209E-14  1.32547214E-03  1.02130965E-03
  3.15138935E-14  1.57381612E-13 -2.67681204E-04  1.94105997E-13  3.28670276E-16
  4.63637446E-04  3.91765466E-14  4.39704303E-05 -1.26254656E-03  3.06199128E-08
 -1.26451952E-07 -6.20864101E-07 -2.14852203E-03 -1.90351838E-07  7.86101591E-07
  3.85966559E-06  1.83578508E-02 -5.88542537E-07  2.43052150E-06  1.19335724E-05
  3.92281010E-09 -4.85335861E-16  3.69981798E-16  1.09289648E-10 -9.97377303E-17
  4.07375309E-01  1.21371990E-02 -9.79075354E-09  4.04331624E-08 -5.48589152E-04
 -8.53723972E-03  8.25217533E-08 -3.40792519E-07  2.10014083E-03 -2.13838764E-04
 -1.37541874E-08  5.68010529E-08  1.32701875E-11 -2.59489217E-16  4.06455109E-01
  1.21110342E-02 -9.79075264E-09 -5.47233985E-04  1.98522097E-07 -8.52280083E-03
  8.25217537E-08  2.09694393E-03 -1.67325090E-06  1.06641117E-04 -1.25600068E-16
  2.78886445E-07  1.84707020E-04 -1.37541879E-08  4.05068301E-01  1.20715958E-02
 -9.79075041E-09  4.04331512E-08  5.45192581E-04 -8.50101669E-03  8.25217523E-08
 -3.40792516E-07 -2.09212502E-03 -2.12444168E-04  1.37541874E-08 -5.68010541E-08
  1.32697485E-11  1.63395627E-16  4.05985239E-01  1.20976727E-02 -9.79075186E-09
  5.46542202E-04  1.98522084E-07 -8.51542326E-03  8.25217532E-08 -2.09531134E-03
 -1.67325090E-06  1.06499097E-04 -6.30121097E-17 -2.78886445E-07  1.84461036E-04
  1.37541870E-08  4.06163337E-01  1.21027371E-02 -5.46804425E-04  4.04331566E-08
  1.98522089E-07 -8.51821933E-03  2.09593014E-03 -3.40792517E-07 -1.67325090E-06
  1.06552955E-04  2.78886445E-07  2.54797082E-16 -1.84554293E-04  5.68010535E-08
  4.06277114E-01  1.21059726E-02  5.46971938E-04  4.04331569E-08  1.98522092E-07
 -8.52000578E-03 -2.09632546E-03 -3.40792517E-07 -1.67325090E-06  1.06587344E-04
 -2.78886445E-07  3.65306706E-17 -1.84613857E-04 -5.68010539E-08 -6.79154048E-08
  1.95009529E-06 -1.91819482E-05  6.92894200E-05 -3.71783525E-04  3.31855336E-06
  1.19246543E-04 -4.30744767E-04  2.31123032E-03 -2.83550445E-05  3.68694231E-04
 -1.33180473E-03  7.14601246E-03  2.47721700E-06 -1.63942111E-15  6.93180404E-15
  7.44663085E-08  9.48648129E-15  6.90783477E-01  1.96416547E-02  6.13310640E-06
 -2.21541301E-05 -1.01726465E-03 -1.08390036E-02 -5.16958633E-05  1.86736839E-04
  2.39895136E-03 -4.18033074E-04  8.61635678E-06 -3.11241776E-05  9.04171433E-09
  3.18341238E-15 -1.29715523E-01 -3.68899290E-03  6.13310749E-06  1.90980319E-04
  1.18871564E-04  2.03795375E-03 -5.16958637E-05 -4.51679062E-04 -1.00196655E-03
 -3.90656405E-05  3.66136512E-16  1.67001780E-04 -6.81756059E-05  8.61635678E-06
 -6.90686391E-01 -1.96425950E-02  6.13310826E-06 -2.21541377E-05 -1.01665633E-03
  1.08519290E-02 -5.16958641E-05  1.86736842E-04  2.40104183E-03  4.17071658E-04
 -8.61635680E-06  3.11241776E-05  9.04171481E-09  3.09180662E-15  1.27749478E-01
  3.63242588E-03  6.13310717E-06  1.88082213E-04  1.18871571E-04 -2.00459262E-03
 -5.16958636E-05 -4.42897276E-04 -1.00196655E-03  3.87537337E-05  3.95435714E-16
 -1.67001780E-04  6.66115040E-05 -8.61635680E-06  3.46902281E-02  9.86089113E-04
 -5.10802313E-05 -2.21541337E-05  1.18871569E-04 -5.43233391E-04  1.19549643E-04
  1.86736841E-04 -1.00196655E-03  1.06446437E-05  1.67001780E-04  1.58615913E-15
 -1.79070485E-05 -3.11241776E-05 -3.65858821E-02 -1.04075822E-03 -5.38587028E-05
 -2.21541341E-05  1.18871567E-04  5.75897280E-04  1.28103130E-04  1.86736841E-04
 -1.00196655E-03 -1.08987204E-05 -1.67001780E-04  2.58659477E-15  1.94071527E-05
  3.11241776E-05  4.46375755E-09 -1.28170525E-07 -3.76621070E-04 -3.73290332E-05
  1.24744428E-05 -2.18112792E-07  2.34130341E-03  2.32059754E-04 -7.75486497E-05
  1.86364275E-06  7.23899441E-03  7.17497464E-04 -2.39769967E-04 -4.56428615E-08
  5.16119812E-13  4.76531455E-14 -1.48054126E-07  1.00947951E-13 -2.31474275E-02
 -6.58158707E-04  1.20418292E-04  1.19353343E-05  3.40876976E-05  3.63156174E-04
 -1.01500386E-03 -1.00602743E-04 -8.03546235E-05  1.40034089E-05  1.69174761E-04
  1.67678624E-05 -1.79767627E-08  2.91754182E-14  6.94358963E-02  1.97451334E-03
  1.20418292E-04 -1.02233781E-04 -3.98849272E-06 -1.09021529E-03 -1.01500386E-03
  2.41318825E-04  3.36189563E-05  2.10013709E-05  1.46643988E-13 -5.60340636E-06
  3.63670636E-05  1.69174761E-04  2.32049944E-02  6.59944688E-04  1.20418293E-04
  1.19353346E-05  3.41563991E-05 -3.64639114E-04 -1.01500386E-03 -1.00602743E-04
 -8.06994212E-05 -1.40168381E-05 -1.69174762E-04 -1.67678625E-05 -1.79767629E-08
  2.93627696E-14 -6.92709885E-02 -1.96983321E-03  1.20418292E-04 -1.01982647E-04
 -3.98849643E-06  1.08766912E-03 -1.01500386E-03  2.40625891E-04  3.36189578E-05
 -2.09230961E-05  1.46711463E-13  5.60340627E-06 -3.62482433E-05 -1.69174762E-04
  6.99735065E-01  1.98981562E-02 -1.03019954E-03  1.19353382E-05 -3.98847592E-06
 -1.09871645E-02  2.43134421E-03 -1.00602745E-04  3.36189500E-05  2.11474370E-04
 -5.60340679E-06  1.38345264E-14 -3.66311929E-04  1.67678623E-05 -6.99710110E-01
 -1.98972495E-02 -1.03018626E-03  1.19353307E-05 -3.98851323E-06  1.09860046E-02
  2.43110518E-03 -1.00602742E-04  3.36189641E-05 -2.11511073E-04  5.60340584E-06
  1.44497109E-14  3.66320349E-04 -1.67678625E-05  2.81656209E-08 -8.08736174E-07
 -3.43674576E-05  3.70402479E-04  7.08047781E-05 -1.37625795E-06  2.13648816E-04
 -2.30264490E-03 -4.40165146E-04  1.17592972E-05  6.60573327E-04 -7.11946752E-03
 -1.36093127E-03 -2.10532160E-07  5.25535368E-14 -5.26621904E-13  4.17095526E-07
  3.73654207E-14 -1.31345120E-01 -3.73456443E-03  1.09884202E-05 -1.18430002E-04
  1.93423636E-04  2.06059043E-03 -9.26212176E-05  9.98244590E-04 -4.55913981E-04
  7.94535865E-05  1.54375495E-05 -1.66381426E-04  5.06438250E-08  9.83853393E-15
 -6.87978730E-01 -1.95632908E-02  1.09884210E-05  1.01295122E-03 -2.26386626E-05
  1.08004140E-02 -9.26212180E-05 -2.38996527E-03  1.90820778E-04 -2.08015331E-04
  1.26643545E-14 -3.18048622E-05 -3.60198201E-04  1.54375495E-05  1.31750636E-01
  3.74697362E-03  1.09884200E-05 -1.18430001E-04  1.93928986E-04 -2.07036633E-03
 -9.26212177E-05  9.98244592E-04 -4.58226722E-04 -7.95889779E-05 -1.54375496E-05
  1.66381427E-04  5.06438249E-08  1.07152422E-14  6.88359460E-01  1.95750317E-02
  1.09884192E-05  1.01341445E-03 -2.26386260E-05 -1.08099444E-02 -9.26212173E-05
 -2.39219762E-03  1.90820764E-04  2.07985974E-04  1.45441008E-14  3.18048632E-05
  3.60337195E-04 -1.54375496E-05  6.42386447E-02  1.82689252E-03 -9.45739059E-05
 -1.18430001E-04 -2.26386426E-05 -1.00926660E-03  2.23609861E-04  9.98244591E-04
  1.90820771E-04  1.94464303E-05 -3.18048628E-05 -1.49278153E-13 -3.36758377E-05
 -1.66381427E-04 -6.34636441E-02 -1.80452119E-03 -9.34405921E-05 -1.18430002E-04
 -2.26386460E-05  9.95830874E-04  2.20098779E-04  9.98244591E-04  1.90820772E-04
 -1.91518729E-05  3.18048627E-05 -1.48121411E-13  3.31783845E-05  1.66381427E-04
 -4.52030552E-12  1.29800226E-10 -2.16097623E-08 -3.10363882E-08 -2.85787091E-07
  2.20887893E-10  1.34339236E-07  1.92940794E-07  1.77662386E-06 -1.88734493E-09
  4.15360248E-07  5.96548998E-07  5.49310061E-06 -1.35218726E-03  1.05872950E-15
  1.30261817E-17  1.61322138E-03 -7.92761066E-17 -3.68449543E-01 -9.93350593E-03
  6.90988042E-09  9.92141927E-09  6.26327984E-04  3.64651564E-03 -5.82392780E-08
 -8.36434182E-08 -1.19486866E-03  4.41770787E-04  9.70693578E-09  1.39413648E-08
  1.95877764E-04  5.76605341E-16 -1.96685713E-01 -5.30303645E-03  6.90965492E-09
  3.34295045E-04  9.13708491E-08  1.94789161E-03 -5.82391907E-08 -6.37896971E-04
 -7.70204514E-07 -3.25800765E-04  2.57636949E-16  1.28373567E-07 -8.40525345E-05
  9.70693966E-09 -3.69511463E-01 -9.96370344E-03  6.90988178E-09  9.92141361E-09
 -6.27891442E-04  3.66318932E-03 -5.82392782E-08 -8.36434158E-08  1.19855838E-03
  4.42412722E-04 -9.70693494E-09 -1.39413652E-08  1.95877763E-04 -6.64522454E-16
 -1.96801037E-01 -5.30631589E-03  6.90965505E-09 -3.34464837E-04  9.13708463E-08
  1.94970236E-03 -5.82391907E-08  6.38297673E-04 -7.70204514E-07 -3.25835622E-04
 -1.10113751E-16 -1.28373567E-07 -8.41129087E-05 -9.70693983E-09  5.65763902E-01
  1.52544188E-02 -9.61548595E-04  9.92648884E-09  9.13913186E-08 -5.60427722E-03
  1.83494970E-03 -8.36453735E-08 -7.70212430E-07  3.00601774E-04  1.28373060E-07
  3.40137305E-16 -6.09152963E-04  1.39412372E-08  5.65683605E-01  1.52521354E-02