 Entering Gaussian System, Link 0=/opt/g09E01ES64L/g09/g09
 Initial command:
 /opt/g09E01ES64L/g09/l1.exe "/home/scratch/Gau-13020.inp" -scrdir="/home/scratch/"
 Entering Link 1 = /opt/g09E01ES64L/g09/l1.exe PID=     13021.
  
 Copyright (c) 1988,1990,1992,1993,1995,1998,2003,2009,2015,
            Gaussian, Inc.  All Rights Reserved.
  
 This is part of the Gaussian(R) 09 program.  It is based on
 the Gaussian(R) 03 system (copyright 2003, Gaussian, Inc.),
 the Gaussian(R) 98 system (copyright 1998, Gaussian, Inc.),
 the Gaussian(R) 94 system (copyright 1995, Gaussian, Inc.),
 the Gaussian 92(TM) system (copyright 1992, Gaussian, Inc.),
 the Gaussian 90(TM) system (copyright 1990, Gaussian, Inc.),
 the Gaussian 88(TM) system (copyright 1988, Gaussian, Inc.),
 the Gaussian 86(TM) system (copyright 1986, Carnegie Mellon
 University), and the Gaussian 82(TM) system (copyright 1983,
 Carnegie Mellon University). Gaussian is a federally registered
 trademark of Gaussian, Inc.
  
 This software contains proprietary and confidential information,
 including trade secrets, belonging to Gaussian, Inc.
  
 This software is provided under written license and may be
 used, copied, transmitted, or stored only in accord with that
 written license.
  
 The following legend is applicable only to US Government
 contracts under FAR:
  
                    RESTRICTED RIGHTS LEGEND
  
 Use, reproduction and disclosure by the US Government is
 subject to restrictions as set forth in subparagraphs (a)
 and (c) of the Commercial Computer Software - Restricted
 Rights clause in FAR 52.227-19.
  
 Gaussian, Inc.
 340 Quinnipiac St., Bldg. 40, Wallingford CT 06492
  
  
 ---------------------------------------------------------------
 Warning -- This program may not be used in any manner that
 competes with the business of Gaussian, Inc. or will provide
 assistance to any competitor of Gaussian, Inc.  The licensee
 of this program is prohibited from giving any competitor of
 Gaussian, Inc. access to this program.  By using this program,
 the user acknowledges that Gaussian, Inc. is engaged in the
 business of creating and licensing software in the field of
 computational chemistry and represents and warrants to the
 licensee that it is not a competitor of Gaussian, Inc. and that
 it will not use this program in any manner prohibited above.
 ---------------------------------------------------------------
  

 Cite this work as:
 Gaussian 09, Revision E.01,
 M. J. Frisch, G. W. Trucks, H. B. Schlegel, G. E. Scuseria, 
 M. A. Robb, J. R. Cheeseman, G. Scalmani, V. Barone, B. Mennucci, 
 G. A. Petersson, H. Nakatsuji, M. Caricato, X. Li, H. P. Hratchian, 
 A. F. Izmaylov, J. Bloino, G. Zheng, J. L. Sonnenberg, M. Hada, 
 M. Ehara, K. Toyota, R. Fukuda, J. Hasegawa, M. Ishida, T. Nakajima, 
 Y. Honda, O. Kitao, H. Nakai, T. Vreven, J. A. Montgomery, Jr., 
 J. E. Peralta, F. Ogliaro, M. Bearpark, J. J. Heyd, E. Brothers, 
 K. N. Kudin, V. N. Staroverov, T. Keith, R. Kobayashi, J. Normand, 
 K. Raghavachari, A. Rendell, J. C. Burant, S. S. Iyengar, J. Tomasi, 
 M. Cossi, N. Rega, J. M. Millam, M. Klene, J. E. Knox, J. B. Cross, 
 V. Bakken, C. Adamo, J. Jaramillo, R. Gomperts, R. E. Stratmann, 
 O. Yazyev, A. J. Austin, R. Cammi, C. Pomelli, J. W. Ochterski, 
 R. L. Martin, K. Morokuma, V. G. Zakrzewski, G. A. Voth, 
 P. Salvador, J. J. Dannenberg, S. Dapprich, A. D. Daniels, 
 O. Farkas, J. B. Foresman, J. V. Ortiz, J. Cioslowski, 
 and D. J. Fox, Gaussian, Inc., Wallingford CT, 2013.
 
 ******************************************
 Gaussian 09:  ES64L-G09RevE.01 30-Nov-2015
                 3-Feb-2021 
 ******************************************
 %chk=SF6dft_N.chk
 %mem=20GB
 %nprocshared=16
 Will use up to   16 processors via shared memory.
 --------------------------
 # B3LYP/6-31g(d) NoSymm 5D
 --------------------------
 1/38=1/1;
 2/12=2,15=1,17=6,18=5,40=1/2;
 3/5=1,6=6,7=1,8=1,11=2,16=1,25=1,30=1,74=-5/1,2,3;
 4//1;
 5/5=2,38=5/2;
 6/7=2,8=2,9=2,10=2,28=1/1;
 99/5=1,9=1/99;
 ---------------------------------------------------------
 Single point of SF6 at the B3LYP/6-31G(d) level of theory
 ---------------------------------------------------------
 Symbolic Z-matrix:
 Charge =  0 Multiplicity = 1
 S                     0.        0.        0. 
 F                     0.        0.        1.60007 
 F                     0.        1.60007   0. 
 F                     0.        0.       -1.60007 
 F                     0.       -1.60007   0. 
 F                     1.60007   0.        0. 
 F                    -1.60007   0.        0. 
 
                          Input orientation:                          
 ---------------------------------------------------------------------
 Center     Atomic      Atomic             Coordinates (Angstroms)
 Number     Number       Type             X           Y           Z
 ---------------------------------------------------------------------
      1         16           0        0.000000    0.000000    0.000000
      2          9           0        0.000000    0.000000    1.600072
      3          9           0        0.000000    1.600072    0.000000
      4          9           0        0.000000    0.000000   -1.600072
      5          9           0        0.000000   -1.600072    0.000000
      6          9           0        1.600072    0.000000    0.000000
      7          9           0       -1.600072    0.000000    0.000000
 ---------------------------------------------------------------------
                    Distance matrix (angstroms):
                    1          2          3          4          5
     1  S    0.000000
     2  F    1.600072   0.000000
     3  F    1.600072   2.262844   0.000000
     4  F    1.600072   3.200144   2.262844   0.000000
     5  F    1.600072   2.262844   3.200144   2.262844   0.000000
     6  F    1.600072   2.262844   2.262844   2.262844   2.262844
     7  F    1.600072   2.262844   2.262844   2.262844   2.262844
                    6          7
     6  F    0.000000
     7  F    3.200144   0.000000
 Symmetry turned off by external request.
 Stoichiometry    F6S
 Framework group  OH[O(S),3C4(F.F)]
 Deg. of freedom     1
 Full point group                 OH      NOp  48
 Rotational constants (GHZ):      2.5975329      2.5975329      2.5975329
 Standard basis: 6-31G(d) (5D, 7F)
   102 basis functions,   220 primitive gaussians,   109 cartesian basis functions
    35 alpha electrons       35 beta electrons
       nuclear repulsion energy       553.2324529864 Hartrees.
 NAtoms=    7 NActive=    7 NUniq=    7 SFac= 1.00D+00 NAtFMM=   60 NAOKFM=F Big=F
 Integral buffers will be    131072 words long.
 Raffenetti 2 integral format.
 Two-electron integral symmetry is turned off.
 One-electron integrals computed using PRISM.
 NBasis=   102 RedAO= T EigKep=  1.70D-02  NBF=   102
 NBsUse=   102 1.00D-06 EigRej= -1.00D+00 NBFU=   102
 ExpMin= 1.17D-01 ExpMax= 2.19D+04 ExpMxC= 3.30D+03 IAcc=1 IRadAn=         1 AccDes= 0.00D+00
 Harris functional with IExCor=  402 and IRadAn=       1 diagonalized for initial guess.
 HarFok:  IExCor=  402 AccDes= 0.00D+00 IRadAn=         1 IDoV= 1 UseB2=F ITyADJ=14
 ICtDFT=  3500011 ScaDFX=  1.000000  1.000000  1.000000  1.000000
 FoFCou: FMM=F IPFlag=           0 FMFlag=      100000 FMFlg1=           0
         NFxFlg=           0 DoJE=T BraDBF=F KetDBF=T FulRan=T
         wScrn=  0.000000 ICntrl=     500 IOpCl=  0 I1Cent=   200000004 NGrid=           0
         NMat0=    1 NMatS0=      1 NMatT0=    0 NMatD0=    1 NMtDS0=    0 NMtDT0=    0
 Symmetry not used in FoFCou.
 Keep R1 ints in memory in canonical form, NReq=14787380.
 Requested convergence on RMS density matrix=1.00D-08 within 128 cycles.
 Requested convergence on MAX density matrix=1.00D-06.
 Requested convergence on             energy=1.00D-06.
 No special actions if energy rises.
 Integral accuracy reduced to 1.0D-05 until final iterations.
 Initial convergence to 1.0D-05 achieved.  Increase integral accuracy.
 DSYEVD-2 returned Info=        5458 IAlg= 4 N=   102 NDim=   102 NE2=    26181234 trying  DSYEV.
 SCF Done:  E(RB3LYP) =  -997.099721000     A.U. after   11 cycles
            NFock= 11  Conv=0.14D-08     -V/T= 2.0043

 **********************************************************************

            Population analysis using the SCF density.

 **********************************************************************

 Alpha  occ. eigenvalues --  -89.33528 -24.76077 -24.76073 -24.76073 -24.76073
 Alpha  occ. eigenvalues --  -24.76065 -24.76065  -8.33723  -6.30377  -6.30377
 Alpha  occ. eigenvalues --   -6.30377  -1.38962  -1.27416  -1.27416  -1.27416
 Alpha  occ. eigenvalues --   -1.22802  -1.22802  -0.82116  -0.66177  -0.66177
 Alpha  occ. eigenvalues --   -0.66177  -0.54768  -0.54768  -0.54768  -0.52081
 Alpha  occ. eigenvalues --   -0.52081  -0.46833  -0.46833  -0.46833  -0.46420
 Alpha  occ. eigenvalues --   -0.46420  -0.46420  -0.42705  -0.42705  -0.42705
 Alpha virt. eigenvalues --   -0.08784   0.09456   0.09456   0.09456   0.28137
 Alpha virt. eigenvalues --    0.33024   0.33024   0.33024   0.48244   0.48244
 Alpha virt. eigenvalues --    0.48244   0.90038   0.90038   1.05683   1.05683
 Alpha virt. eigenvalues --    1.05683   1.13462   1.13462   1.13462   1.13511
 Alpha virt. eigenvalues --    1.15083   1.15083   1.15083   1.19981   1.19981
 Alpha virt. eigenvalues --    1.36778   1.36778   1.36778   1.47804   1.47804
 Alpha virt. eigenvalues --    1.47804   1.48165   1.48165   1.64282   1.64282
 Alpha virt. eigenvalues --    1.64282   1.67866   1.78351   1.78351   1.78351
 Alpha virt. eigenvalues --    1.81330   1.81330   1.90076   1.90076   1.91652
 Alpha virt. eigenvalues --    1.95893   1.95893   1.95893   1.97475   1.97475
 Alpha virt. eigenvalues --    1.97475   2.01360   2.01360   2.01360   2.04308
 Alpha virt. eigenvalues --    2.04308   2.04308   2.15017   2.15017   2.15017
 Alpha virt. eigenvalues --    2.32786   2.49783   2.49783   2.49783   2.52009
 Alpha virt. eigenvalues --    3.01918   3.01918
          Condensed to atoms (all electrons):
               1          2          3          4          5          6
     1  S   12.670108   0.252428   0.252428   0.252428   0.252428   0.252428
     2  F    0.252428   9.164230  -0.028518  -0.000031  -0.028518  -0.028518
     3  F    0.252428  -0.028518   9.164230  -0.028518  -0.000031  -0.028518
     4  F    0.252428  -0.000031  -0.028518   9.164230  -0.028518  -0.028518
     5  F    0.252428  -0.028518  -0.000031  -0.028518   9.164230  -0.028518
     6  F    0.252428  -0.028518  -0.028518  -0.028518  -0.028518   9.164230
     7  F    0.252428  -0.028518  -0.028518  -0.028518  -0.028518  -0.000031
               7
     1  S    0.252428
     2  F   -0.028518
     3  F   -0.028518
     4  F   -0.028518
     5  F   -0.028518
     6  F   -0.000031
     7  F    9.164230
 Mulliken charges:
               1
     1  S    1.815326
     2  F   -0.302554
     3  F   -0.302554
     4  F   -0.302554
     5  F   -0.302554
     6  F   -0.302554
     7  F   -0.302554
 Sum of Mulliken charges =  -0.00000
 Mulliken charges with hydrogens summed into heavy atoms:
               1
     1  S    1.815326
     2  F   -0.302554
     3  F   -0.302554
     4  F   -0.302554
     5  F   -0.302554
     6  F   -0.302554
     7  F   -0.302554
 Electronic spatial extent (au):  <R**2>=            587.1980
 Charge=             -0.0000 electrons
 Dipole moment (field-independent basis, Debye):
    X=             -0.0000    Y=             -0.0000    Z=              0.0000  Tot=              0.0000
 Quadrupole moment (field-independent basis, Debye-Ang):
   XX=            -41.9156   YY=            -41.9156   ZZ=            -41.9156
   XY=              0.0000   XZ=              0.0000   YZ=              0.0000
 Traceless Quadrupole moment (field-independent basis, Debye-Ang):
   XX=              0.0000   YY=             -0.0000   ZZ=              0.0000
   XY=              0.0000   XZ=              0.0000   YZ=              0.0000
 Octapole moment (field-independent basis, Debye-Ang**2):
  XXX=             -0.0000  YYY=             -0.0000  ZZZ=              0.0000  XYY=              0.0000
  XXY=             -0.0000  XXZ=             -0.0000  XZZ=              0.0000  YZZ=             -0.0000
  YYZ=             -0.0000  XYZ=             -0.0000
 Hexadecapole moment (field-independent basis, Debye-Ang**3):
 XXXX=           -170.4314 YYYY=           -170.4314 ZZZZ=           -170.4314 XXXY=             -0.0000
 XXXZ=              0.0000 YYYX=              0.0000 YYYZ=              0.0000 ZZZX=              0.0000
 ZZZY=              0.0000 XXYY=            -56.6703 XXZZ=            -56.6703 YYZZ=            -56.6703
 XXYZ=              0.0000 YYXZ=             -0.0000 ZZXY=             -0.0000
 N-N= 5.532324529864D+02 E-N=-3.477537985817D+03  KE= 9.928082748943D+02
 1\1\GINC-LOCALHOST\SP\RB3LYP\6-31G(d)\F6S1\ROOT\03-Feb-2021\0\\# B3LYP
 /6-31g(d) NoSymm 5D\\Single point of SF6 at the B3LYP/6-31G(d) level o
 f theory\\0,1\S,0,0.,0.,0.\F,0,0.,0.,1.600072\F,0,0.,1.600072,0.\F,0,0
 .,0.,-1.600072\F,0,0.,-1.600072,0.\F,0,1.600072,0.,0.\F,0,-1.600072,0.
 ,0.\\Version=ES64L-G09RevE.01\HF=-997.099721\RMSD=1.356e-09\Dipole=0.,
 0.,0.\Quadrupole=0.,0.,0.,0.,0.,0.\PG=OH [O(S1),3C4(F1.F1)]\\@


 IF YOU WANT TO LEARN FROM THE THEORETICAL PHYSICISTS ABOUT THE
 METHODS WHICH THEY USE, I ADVISE YOU TO FOLLOW THIS PRINCIPLE VERY STRICTLY:
 DON'T LISTEN TO THEIR WORDS; PAY ATTENTION, INSTEAD, TO THEIR ACTIONS.
 -- A.EINSTEIN, 1934
 Job cpu time:       0 days  0 hours  0 minutes 24.0 seconds.
 File lengths (MBytes):  RWF=      6 Int=      0 D2E=      0 Chk=      2 Scr=      1
 Normal termination of Gaussian 09 at Wed Feb  3 22:41:12 2021.
