 Entering Gaussian System, Link 0=/opt/g09E01ES64L/g09/g09
 Initial command:
 /opt/g09E01ES64L/g09/l1.exe "/home/scratch/Gau-13270.inp" -scrdir="/home/scratch/"
 Entering Link 1 = /opt/g09E01ES64L/g09/l1.exe PID=     13271.
  
 Copyright (c) 1988,1990,1992,1993,1995,1998,2003,2009,2015,
            Gaussian, Inc.  All Rights Reserved.
  
 This is part of the Gaussian(R) 09 program.  It is based on
 the Gaussian(R) 03 system (copyright 2003, Gaussian, Inc.),
 the Gaussian(R) 98 system (copyright 1998, Gaussian, Inc.),
 the Gaussian(R) 94 system (copyright 1995, Gaussian, Inc.),
 the Gaussian 92(TM) system (copyright 1992, Gaussian, Inc.),
 the Gaussian 90(TM) system (copyright 1990, Gaussian, Inc.),
 the Gaussian 88(TM) system (copyright 1988, Gaussian, Inc.),
 the Gaussian 86(TM) system (copyright 1986, Carnegie Mellon
 University), and the Gaussian 82(TM) system (copyright 1983,
 Carnegie Mellon University). Gaussian is a federally registered
 trademark of Gaussian, Inc.
  
 This software contains proprietary and confidential information,
 including trade secrets, belonging to Gaussian, Inc.
  
 This software is provided under written license and may be
 used, copied, transmitted, or stored only in accord with that
 written license.
  
 The following legend is applicable only to US Government
 contracts under FAR:
  
                    RESTRICTED RIGHTS LEGEND
  
 Use, reproduction and disclosure by the US Government is
 subject to restrictions as set forth in subparagraphs (a)
 and (c) of the Commercial Computer Software - Restricted
 Rights clause in FAR 52.227-19.
  
 Gaussian, Inc.
 340 Quinnipiac St., Bldg. 40, Wallingford CT 06492
  
  
 ---------------------------------------------------------------
 Warning -- This program may not be used in any manner that
 competes with the business of Gaussian, Inc. or will provide
 assistance to any competitor of Gaussian, Inc.  The licensee
 of this program is prohibited from giving any competitor of
 Gaussian, Inc. access to this program.  By using this program,
 the user acknowledges that Gaussian, Inc. is engaged in the
 business of creating and licensing software in the field of
 computational chemistry and represents and warrants to the
 licensee that it is not a competitor of Gaussian, Inc. and that
 it will not use this program in any manner prohibited above.
 ---------------------------------------------------------------
  

 Cite this work as:
 Gaussian 09, Revision E.01,
 M. J. Frisch, G. W. Trucks, H. B. Schlegel, G. E. Scuseria, 
 M. A. Robb, J. R. Cheeseman, G. Scalmani, V. Barone, B. Mennucci, 
 G. A. Petersson, H. Nakatsuji, M. Caricato, X. Li, H. P. Hratchian, 
 A. F. Izmaylov, J. Bloino, G. Zheng, J. L. Sonnenberg, M. Hada, 
 M. Ehara, K. Toyota, R. Fukuda, J. Hasegawa, M. Ishida, T. Nakajima, 
 Y. Honda, O. Kitao, H. Nakai, T. Vreven, J. A. Montgomery, Jr., 
 J. E. Peralta, F. Ogliaro, M. Bearpark, J. J. Heyd, E. Brothers, 
 K. N. Kudin, V. N. Staroverov, T. Keith, R. Kobayashi, J. Normand, 
 K. Raghavachari, A. Rendell, J. C. Burant, S. S. Iyengar, J. Tomasi, 
 M. Cossi, N. Rega, J. M. Millam, M. Klene, J. E. Knox, J. B. Cross, 
 V. Bakken, C. Adamo, J. Jaramillo, R. Gomperts, R. E. Stratmann, 
 O. Yazyev, A. J. Austin, R. Cammi, C. Pomelli, J. W. Ochterski, 
 R. L. Martin, K. Morokuma, V. G. Zakrzewski, G. A. Voth, 
 P. Salvador, J. J. Dannenberg, S. Dapprich, A. D. Daniels, 
 O. Farkas, J. B. Foresman, J. V. Ortiz, J. Cioslowski, 
 and D. J. Fox, Gaussian, Inc., Wallingford CT, 2013.
 
 ******************************************
 Gaussian 09:  ES64L-G09RevE.01 30-Nov-2015
                 3-Feb-2021 
 ******************************************
 %chk=SF6dft_N-3.chk
 %mem=20GB
 %nprocshared=16
 Will use up to   16 processors via shared memory.
 ---------------------------
 # UB3LYP/6-31g(d) NoSymm 5D
 ---------------------------
 1/38=1/1;
 2/12=2,15=1,17=6,18=5,40=1/2;
 3/5=1,6=6,7=1,8=1,11=2,16=1,25=1,30=1,74=-5,116=2/1,2,3;
 4//1;
 5/5=2,38=5/2;
 6/7=2,8=2,9=2,10=2,28=1/1;
 99/5=1,9=1/99;
 -------------------------------------------------------------
 Single point of SF6^+3 at the UB3LYP/6-31G(d) level of theory
 -------------------------------------------------------------
 Symbolic Z-matrix:
 Charge =  3 Multiplicity = 4
 S                     0.        0.        0. 
 F                     0.        0.        1.60007 
 F                     0.        1.60007   0. 
 F                     0.        0.       -1.60007 
 F                     0.       -1.60007   0. 
 F                     1.60007   0.        0. 
 F                    -1.60007   0.        0. 
 
                          Input orientation:                          
 ---------------------------------------------------------------------
 Center     Atomic      Atomic             Coordinates (Angstroms)
 Number     Number       Type             X           Y           Z
 ---------------------------------------------------------------------
      1         16           0        0.000000    0.000000    0.000000
      2          9           0        0.000000    0.000000    1.600072
      3          9           0        0.000000    1.600072    0.000000
      4          9           0        0.000000    0.000000   -1.600072
      5          9           0        0.000000   -1.600072    0.000000
      6          9           0        1.600072    0.000000    0.000000
      7          9           0       -1.600072    0.000000    0.000000
 ---------------------------------------------------------------------
                    Distance matrix (angstroms):
                    1          2          3          4          5
     1  S    0.000000
     2  F    1.600072   0.000000
     3  F    1.600072   2.262844   0.000000
     4  F    1.600072   3.200144   2.262844   0.000000
     5  F    1.600072   2.262844   3.200144   2.262844   0.000000
     6  F    1.600072   2.262844   2.262844   2.262844   2.262844
     7  F    1.600072   2.262844   2.262844   2.262844   2.262844
                    6          7
     6  F    0.000000
     7  F    3.200144   0.000000
 Symmetry turned off by external request.
 Stoichiometry    F6S(3+,4)
 Framework group  OH[O(S),3C4(F.F)]
 Deg. of freedom     1
 Full point group                 OH      NOp  48
 Rotational constants (GHZ):      2.5975329      2.5975329      2.5975329
 Standard basis: 6-31G(d) (5D, 7F)
   102 basis functions,   220 primitive gaussians,   109 cartesian basis functions
    35 alpha electrons       32 beta electrons
       nuclear repulsion energy       553.2324529864 Hartrees.
 NAtoms=    7 NActive=    7 NUniq=    7 SFac= 1.00D+00 NAtFMM=   60 NAOKFM=F Big=F
 Integral buffers will be    131072 words long.
 Raffenetti 2 integral format.
 Two-electron integral symmetry is turned off.
 One-electron integrals computed using PRISM.
 NBasis=   102 RedAO= T EigKep=  1.70D-02  NBF=   102
 NBsUse=   102 1.00D-06 EigRej= -1.00D+00 NBFU=   102
 ExpMin= 1.17D-01 ExpMax= 2.19D+04 ExpMxC= 3.30D+03 IAcc=1 IRadAn=         1 AccDes= 0.00D+00
 Harris functional with IExCor=  402 and IRadAn=       1 diagonalized for initial guess.
 HarFok:  IExCor=  402 AccDes= 0.00D+00 IRadAn=         1 IDoV= 1 UseB2=F ITyADJ=14
 ICtDFT=  3500011 ScaDFX=  1.000000  1.000000  1.000000  1.000000
 FoFCou: FMM=F IPFlag=           0 FMFlag=      100000 FMFlg1=           0
         NFxFlg=           0 DoJE=T BraDBF=F KetDBF=T FulRan=T
         wScrn=  0.000000 ICntrl=     500 IOpCl=  0 I1Cent=   200000004 NGrid=           0
         NMat0=    1 NMatS0=      1 NMatT0=    0 NMatD0=    1 NMtDS0=    0 NMtDT0=    0
 Symmetry not used in FoFCou.
 Initial guess <Sx>= 0.0000 <Sy>= 0.0000 <Sz>= 1.5000 <S**2>= 3.7500 S= 1.5000
 Keep R1 and R2 ints in memory in canonical form, NReq=28587011.
 Requested convergence on RMS density matrix=1.00D-08 within 128 cycles.
 Requested convergence on MAX density matrix=1.00D-06.
 Requested convergence on             energy=1.00D-06.
 No special actions if energy rises.
 Integral accuracy reduced to 1.0D-05 until final iterations.
 Initial convergence to 1.0D-05 achieved.  Increase integral accuracy.
 DSYEVD-2 returned Info=         154 IAlg= 4 N=   102 NDim=   102 NE2=    26045943 trying  DSYEV.
 DSYEVD-2 returned Info=         154 IAlg= 4 N=   102 NDim=   102 NE2=    26045943 trying  DSYEV.
 DSYEVD-2 returned Info=         154 IAlg= 4 N=   102 NDim=   102 NE2=    26045943 trying  DSYEV.
 SCF Done:  E(UB3LYP) =  -994.674566681     A.U. after   14 cycles
            NFock= 14  Conv=0.12D-08     -V/T= 2.0040
 <Sx>= 0.0000 <Sy>= 0.0000 <Sz>= 1.5000 <S**2>= 3.7639 S= 1.5035
 <L.S>= 0.000000000000E+00
 Annihilation of the first spin contaminant:
 S**2 before annihilation     3.7639,   after     3.7501

 **********************************************************************

            Population analysis using the SCF density.

 **********************************************************************

 Alpha  occ. eigenvalues --  -90.17919 -25.69139 -25.69135 -25.69135 -25.69135
 Alpha  occ. eigenvalues --  -25.69127 -25.69127  -9.18586  -7.15185  -7.15185
 Alpha  occ. eigenvalues --   -7.15185  -2.27066  -2.16115  -2.16115  -2.16115
 Alpha  occ. eigenvalues --   -2.11729  -2.11729  -1.67167  -1.51473  -1.51473
 Alpha  occ. eigenvalues --   -1.51473  -1.42331  -1.42331  -1.42331  -1.37534
 Alpha  occ. eigenvalues --   -1.37534  -1.34992  -1.34992  -1.34992  -1.34459
 Alpha  occ. eigenvalues --   -1.34459  -1.34459  -1.31826  -1.31826  -1.31826
 Alpha virt. eigenvalues --   -0.95322  -0.76709  -0.76709  -0.76709  -0.45439
 Alpha virt. eigenvalues --   -0.39353  -0.39353  -0.39353  -0.38031  -0.38031
 Alpha virt. eigenvalues --   -0.38031   0.04459   0.04459   0.25487   0.25487
 Alpha virt. eigenvalues --    0.25487   0.33527   0.33527   0.33527   0.37645
 Alpha virt. eigenvalues --    0.37680   0.37680   0.37680   0.44933   0.44933
 Alpha virt. eigenvalues --    0.58485   0.58485   0.58485   0.65812   0.65812
 Alpha virt. eigenvalues --    0.69990   0.69990   0.69990   0.83722   0.83722
 Alpha virt. eigenvalues --    0.83722   0.85338   0.95751   0.95751   0.95751
 Alpha virt. eigenvalues --    0.98748   0.98748   1.07760   1.07760   1.08957
 Alpha virt. eigenvalues --    1.12697   1.12697   1.12697   1.14349   1.14349
 Alpha virt. eigenvalues --    1.14349   1.17432   1.17432   1.17432   1.22452
 Alpha virt. eigenvalues --    1.22452   1.22452   1.36511   1.36511   1.36511
 Alpha virt. eigenvalues --    1.51093   1.65542   1.65542   1.65542   1.71950
 Alpha virt. eigenvalues --    2.18046   2.18046
  Beta  occ. eigenvalues --  -90.17985 -25.67293 -25.67287 -25.67287 -25.67287
  Beta  occ. eigenvalues --  -25.67280 -25.67280  -9.18666  -7.15281  -7.15281
  Beta  occ. eigenvalues --   -7.15281  -2.24244  -2.11991  -2.11991  -2.11991
  Beta  occ. eigenvalues --   -2.07031  -2.07031  -1.65186  -1.49148  -1.49148
  Beta  occ. eigenvalues --   -1.49148  -1.36010  -1.36010  -1.36010  -1.35655
  Beta  occ. eigenvalues --   -1.35655  -1.27583  -1.27583  -1.27583  -1.26832
  Beta  occ. eigenvalues --   -1.26832  -1.26832
  Beta virt. eigenvalues --   -1.19265  -1.19265  -1.19265  -0.93890  -0.75398
  Beta virt. eigenvalues --   -0.75398  -0.75398  -0.45060  -0.38497  -0.38497
  Beta virt. eigenvalues --   -0.38497  -0.36924  -0.36924  -0.36924   0.04959
  Beta virt. eigenvalues --    0.04959   0.27917   0.27917   0.27917   0.36608
  Beta virt. eigenvalues --    0.36608   0.36608   0.38434   0.39225   0.39225
  Beta virt. eigenvalues --    0.39225   0.46151   0.46151   0.61345   0.61345
  Beta virt. eigenvalues --    0.61345   0.67665   0.67665   0.72027   0.72027
  Beta virt. eigenvalues --    0.72027   0.85522   0.85522   0.85522   0.88025
  Beta virt. eigenvalues --    0.98544   0.98544   0.98544   1.01627   1.01627
  Beta virt. eigenvalues --    1.10051   1.10051   1.11865   1.15278   1.15278
  Beta virt. eigenvalues --    1.15278   1.16100   1.16100   1.16100   1.19322
  Beta virt. eigenvalues --    1.19322   1.19322   1.23794   1.23794   1.23794
  Beta virt. eigenvalues --    1.38238   1.38238   1.38238   1.52320   1.67019
  Beta virt. eigenvalues --    1.67019   1.67019   1.73895   2.19380   2.19380
          Condensed to atoms (all electrons):
               1          2          3          4          5          6
     1  S   12.862298   0.192661   0.192661   0.192661   0.192661   0.192661
     2  F    0.192661   8.689464  -0.013035   0.000305  -0.013035  -0.013035
     3  F    0.192661  -0.013035   8.689464  -0.013035   0.000305  -0.013035
     4  F    0.192661   0.000305  -0.013035   8.689464  -0.013035  -0.013035
     5  F    0.192661  -0.013035   0.000305  -0.013035   8.689464  -0.013035
     6  F    0.192661  -0.013035  -0.013035  -0.013035  -0.013035   8.689464
     7  F    0.192661  -0.013035  -0.013035  -0.013035  -0.013035   0.000305
               7
     1  S    0.192661
     2  F   -0.013035
     3  F   -0.013035
     4  F   -0.013035
     5  F   -0.013035
     6  F    0.000305
     7  F    8.689464
          Atomic-Atomic Spin Densities.
               1          2          3          4          5          6
     1  S   -0.127182  -0.006688  -0.006688  -0.006688  -0.006688  -0.006688
     2  F   -0.006688   0.562855  -0.007047  -0.000094  -0.007047  -0.007047
     3  F   -0.006688  -0.007047   0.562855  -0.007047  -0.000094  -0.007047
     4  F   -0.006688  -0.000094  -0.007047   0.562855  -0.007047  -0.007047
     5  F   -0.006688  -0.007047  -0.000094  -0.007047   0.562855  -0.007047
     6  F   -0.006688  -0.007047  -0.007047  -0.007047  -0.007047   0.562855
     7  F   -0.006688  -0.007047  -0.007047  -0.007047  -0.007047  -0.000094
               7
     1  S   -0.006688
     2  F   -0.007047
     3  F   -0.007047
     4  F   -0.007047
     5  F   -0.007047
     6  F   -0.000094
     7  F    0.562855
 Mulliken charges and spin densities:
               1          2
     1  S    1.981735  -0.167307
     2  F    0.169711   0.527885
     3  F    0.169711   0.527885
     4  F    0.169711   0.527885
     5  F    0.169711   0.527885
     6  F    0.169711   0.527885
     7  F    0.169711   0.527885
 Sum of Mulliken charges =   3.00000   3.00000
 Mulliken charges and spin densities with hydrogens summed into heavy atoms:
               1          2
     1  S    1.981735  -0.167307
     2  F    0.169711   0.527885
     3  F    0.169711   0.527885
     4  F    0.169711   0.527885
     5  F    0.169711   0.527885
     6  F    0.169711   0.527885
     7  F    0.169711   0.527885
 Electronic spatial extent (au):  <R**2>=            546.7892
 Charge=              3.0000 electrons
 Dipole moment (field-independent basis, Debye):
    X=              0.0000    Y=              0.0000    Z=              0.0000  Tot=              0.0000
 Quadrupole moment (field-independent basis, Debye-Ang):
   XX=            -23.7985   YY=            -23.7985   ZZ=            -23.7985
   XY=             -0.0000   XZ=             -0.0000   YZ=             -0.0000
 Traceless Quadrupole moment (field-independent basis, Debye-Ang):
   XX=              0.0000   YY=             -0.0000   ZZ=              0.0000
   XY=             -0.0000   XZ=             -0.0000   YZ=             -0.0000
 Octapole moment (field-independent basis, Debye-Ang**2):
  XXX=              0.0000  YYY=              0.0000  ZZZ=              0.0000  XYY=              0.0000
  XXY=              0.0000  XXZ=              0.0000  XZZ=              0.0000  YZZ=              0.0000
  YYZ=              0.0000  XYZ=              0.0000
 Hexadecapole moment (field-independent basis, Debye-Ang**3):
 XXXX=           -109.3640 YYYY=           -109.3640 ZZZZ=           -109.3640 XXXY=             -0.0000
 XXXZ=             -0.0000 YYYX=             -0.0000 YYYZ=             -0.0000 ZZZX=             -0.0000
 ZZZY=             -0.0000 XXYY=            -47.7728 XXZZ=            -47.7728 YYZZ=            -47.7728
 XXYZ=              0.0000 YYXZ=              0.0000 ZZXY=             -0.0000
 N-N= 5.532324529864D+02 E-N=-3.414935019330D+03  KE= 9.907094698620D+02
                          Isotropic Fermi Contact Couplings
        Atom                 a.u.       MegaHertz       Gauss      10(-4) cm-1
     1  S(33)             -0.15961     -18.27345      -6.52042      -6.09537
     2  F(19)              0.09643     135.23994      48.25697      45.11119
     3  F(19)              0.09643     135.23994      48.25697      45.11119
     4  F(19)              0.09643     135.23994      48.25697      45.11119
     5  F(19)              0.09643     135.23994      48.25697      45.11119
     6  F(19)              0.09643     135.23994      48.25697      45.11119
     7  F(19)              0.09643     135.23994      48.25697      45.11119
 --------------------------------------------------------
       Center         ----  Spin Dipole Couplings  ----
                      3XX-RR        3YY-RR        3ZZ-RR
 --------------------------------------------------------
     1   Atom        0.000000     -0.000000      0.000000
     2   Atom        0.930472      0.930472     -1.860945
     3   Atom        0.930472     -1.860945      0.930472
     4   Atom        0.930472      0.930472     -1.860945
     5   Atom        0.930472     -1.860945      0.930472
     6   Atom       -1.860945      0.930472      0.930472
     7   Atom       -1.860945      0.930472      0.930472
 --------------------------------------------------------
                        XY            XZ            YZ
 --------------------------------------------------------
     1   Atom       -0.000000      0.000000      0.000000
     2   Atom        0.000000     -0.000000      0.000000
     3   Atom       -0.000000     -0.000000     -0.000000
     4   Atom        0.000000      0.000000     -0.000000
     5   Atom        0.000000      0.000000      0.000000
     6   Atom       -0.000000     -0.000000      0.000000
     7   Atom       -0.000000      0.000000     -0.000000
 --------------------------------------------------------


 ---------------------------------------------------------------------------------
              Anisotropic Spin Dipole Couplings in Principal Axis System
 ---------------------------------------------------------------------------------

       Atom             a.u.   MegaHertz   Gauss  10(-4) cm-1        Axes

              Baa    -0.0000    -0.000    -0.000    -0.000  0.0000  1.0000 -0.0000
     1 S(33)  Bbb     0.0000     0.000     0.000     0.000  1.0000 -0.0000 -0.0000
              Bcc     0.0000     0.000     0.000     0.000  0.0000  0.0000  1.0000
 
              Baa    -1.8609  -934.614  -333.494  -311.754  0.0000 -0.0000  1.0000
     2 F(19)  Bbb     0.9305   467.307   166.747   155.877  1.0000 -0.0000 -0.0000
              Bcc     0.9305   467.307   166.747   155.877  0.0000  1.0000  0.0000
 
              Baa    -1.8609  -934.614  -333.494  -311.754  0.0000  1.0000  0.0000
     3 F(19)  Bbb     0.9305   467.307   166.747   155.877  0.0000 -0.0000  1.0000
              Bcc     0.9305   467.307   166.747   155.877  1.0000 -0.0000 -0.0000
 
              Baa    -1.8609  -934.614  -333.494  -311.754 -0.0000  0.0000  1.0000
     4 F(19)  Bbb     0.9305   467.307   166.747   155.877  1.0000 -0.0000  0.0000
              Bcc     0.9305   467.307   166.747   155.877  0.0000  1.0000 -0.0000
 
              Baa    -1.8609  -934.614  -333.494  -311.754 -0.0000  1.0000 -0.0000
     5 F(19)  Bbb     0.9305   467.307   166.747   155.877 -0.0000  0.0000  1.0000
              Bcc     0.9305   467.307   166.747   155.877  1.0000  0.0000  0.0000
 
              Baa    -1.8609  -934.614  -333.494  -311.754  1.0000  0.0000  0.0000
     6 F(19)  Bbb     0.9305   467.307   166.747   155.877 -0.0000 -0.0000  1.0000
              Bcc     0.9305   467.307   166.747   155.877 -0.0000  1.0000  0.0000
 
              Baa    -1.8609  -934.614  -333.494  -311.754  1.0000  0.0000 -0.0000
     7 F(19)  Bbb     0.9305   467.307   166.747   155.877  0.0000  0.0000  1.0000
              Bcc     0.9305   467.307   166.747   155.877 -0.0000  1.0000 -0.0000
 

 ---------------------------------------------------------------------------------

 1\1\GINC-LOCALHOST\SP\UB3LYP\6-31G(d)\F6S1(3+,4)\ROOT\03-Feb-2021\0\\#
  UB3LYP/6-31g(d) NoSymm 5D\\Single point of SF6^+3 at the UB3LYP/6-31G
 (d) level of theory\\3,4\S,0,0.,0.,0.\F,0,0.,0.,1.600072\F,0,0.,1.6000
 72,0.\F,0,0.,0.,-1.600072\F,0,0.,-1.600072,0.\F,0,1.600072,0.,0.\F,0,-
 1.600072,0.,0.\\Version=ES64L-G09RevE.01\HF=-994.6745667\S2=3.763854\S
 2-1=0.\S2A=3.750096\RMSD=1.169e-09\Dipole=0.,0.,0.\Quadrupole=0.000000
 1,-0.0000004,0.0000003,0.,0.,0.\PG=OH [O(S1),3C4(F1.F1)]\\@


 A politician is a person who can make waves and then
 make you think he's the only one who can save the ship.
 -- Ivern Ball
 Job cpu time:       0 days  0 hours  0 minutes 37.4 seconds.
 File lengths (MBytes):  RWF=      9 Int=      0 D2E=      0 Chk=      2 Scr=      1
 Normal termination of Gaussian 09 at Wed Feb  3 22:43:21 2021.
