Single point of SF6^-1 at the UB3LYP/6-31G(d) level of theory           
SP        UB3LYP                                                      6-31G(d)            
Number of atoms                            I                7
Info1-9                                    I   N=           9
          16          16           0           0           0         110
           1          18        -502
Charge                                     I               -1
Multiplicity                               I                2
Number of electrons                        I               71
Number of alpha electrons                  I               36
Number of beta electrons                   I               35
Number of basis functions                  I              102
Number of independent functions            I              102
Number of point charges in /Mol/           I                0
Number of translation vectors              I                0
Atomic numbers                             I   N=           7
          16           9           9           9           9           9
           9
Nuclear charges                            R   N=           7
  1.60000000E+01  9.00000000E+00  9.00000000E+00  9.00000000E+00  9.00000000E+00
  9.00000000E+00  9.00000000E+00
Current cartesian coordinates              R   N=          21
  0.00000000E+00  0.00000000E+00  0.00000000E+00  0.00000000E+00  0.00000000E+00
  3.02369787E+00  0.00000000E+00  3.02369787E+00  0.00000000E+00  0.00000000E+00
  0.00000000E+00 -3.02369787E+00  0.00000000E+00 -3.02369787E+00  0.00000000E+00
  3.02369787E+00  0.00000000E+00  0.00000000E+00 -3.02369787E+00  0.00000000E+00
  0.00000000E+00
Force Field                                I                0
Int Atom Types                             I   N=           7
           0           0           0           0           0           0
           0
MM charges                                 R   N=           7
  0.00000000E+00  0.00000000E+00  0.00000000E+00  0.00000000E+00  0.00000000E+00
  0.00000000E+00  0.00000000E+00
Integer atomic weights                     I   N=           7
          32          19          19          19          19          19
          19
Real atomic weights                        R   N=           7
  3.19720718E+01  1.89984032E+01  1.89984032E+01  1.89984032E+01  1.89984032E+01
  1.89984032E+01  1.89984032E+01
Atom fragment info                         I   N=           7
           0           0           0           0           0           0
           0
Atom residue num                           I   N=           7
           0           0           0           0           0           0
           0
Nuclear spins                              I   N=           7
           0           1           1           1           1           1
           1
Nuclear ZEff                               R   N=           7
 -1.36000000E+01 -6.75000000E+00 -6.75000000E+00 -6.75000000E+00 -6.75000000E+00
 -6.75000000E+00 -6.75000000E+00
Nuclear ZNuc                               R   N=           7
  1.60000000E+01  9.00000000E+00  9.00000000E+00  9.00000000E+00  9.00000000E+00
  9.00000000E+00  9.00000000E+00
Nuclear QMom                               R   N=           7
  0.00000000E+00  0.00000000E+00  0.00000000E+00  0.00000000E+00  0.00000000E+00
  0.00000000E+00  0.00000000E+00
Nuclear GFac                               R   N=           7
  0.00000000E+00  2.62886700E+00  2.62886700E+00  2.62886700E+00  2.62886700E+00
  2.62886700E+00  2.62886700E+00
MicOpt                                     I   N=           7
          -1          -1          -1          -1          -1          -1
          -1
Number of contracted shells                I               29
Number of primitive shells                 I               83
Pure/Cartesian d shells                    I                0
Pure/Cartesian f shells                    I                0
Highest angular momentum                   I                2
Largest degree of contraction              I                6
Shell types                                I   N=          29
           0          -1          -1          -1          -2           0
          -1          -1          -2           0          -1          -1
          -2           0          -1          -1          -2           0
          -1          -1          -2           0          -1          -1
          -2           0          -1          -1          -2
Number of primitives per shell             I   N=          29
           6           6           3           1           1           6
           3           1           1           6           3           1
           1           6           3           1           1           6
           3           1           1           6           3           1
           1           6           3           1           1
Shell to atom map                          I   N=          29
           1           1           1           1           1           2
           2           2           2           3           3           3
           3           4           4           4           4           5
           5           5           5           6           6           6
           6           7           7           7           7
Primitive exponents                        R   N=          83
  2.19171000E+04  3.30149000E+03  7.54146000E+02  2.12711000E+02  6.79896000E+01
  2.30515000E+01  4.23735000E+02  1.00710000E+02  3.21599000E+01  1.18079000E+01
  4.63110000E+00  1.87025000E+00  2.61584000E+00  9.22167000E-01  3.41287000E-01
  1.17167000E-01  6.50000000E-01  7.00171309E+03  1.05136609E+03  2.39285690E+02
  6.73974453E+01  2.15199573E+01  7.40310130E+00  2.08479528E+01  4.80830834E+00
  1.34406986E+00  3.58151393E-01  8.00000000E-01  7.00171309E+03  1.05136609E+03
  2.39285690E+02  6.73974453E+01  2.15199573E+01  7.40310130E+00  2.08479528E+01
  4.80830834E+00  1.34406986E+00  3.58151393E-01  8.00000000E-01  7.00171309E+03
  1.05136609E+03  2.39285690E+02  6.73974453E+01  2.15199573E+01  7.40310130E+00
  2.08479528E+01  4.80830834E+00  1.34406986E+00  3.58151393E-01  8.00000000E-01
  7.00171309E+03  1.05136609E+03  2.39285690E+02  6.73974453E+01  2.15199573E+01
  7.40310130E+00  2.08479528E+01  4.80830834E+00  1.34406986E+00  3.58151393E-01
  8.00000000E-01  7.00171309E+03  1.05136609E+03  2.39285690E+02  6.73974453E+01
  2.15199573E+01  7.40310130E+00  2.08479528E+01  4.80830834E+00  1.34406986E+00
  3.58151393E-01  8.00000000E-01  7.00171309E+03  1.05136609E+03  2.39285690E+02
  6.73974453E+01  2.15199573E+01  7.40310130E+00  2.08479528E+01  4.80830834E+00
  1.34406986E+00  3.58151393E-01  8.00000000E-01
Contraction coefficients                   R   N=          83
  1.86924085E-03  1.42303065E-02  6.96962317E-02  2.38487108E-01  4.83307220E-01
  3.38074154E-01 -2.37677050E-03 -3.16930067E-02 -1.13317024E-01  5.60900118E-02
  5.92255124E-01  4.55006095E-01 -2.50373114E-01  6.69567631E-02  1.05450627E+00
  1.00000000E+00  1.00000000E+00  1.81961690E-03  1.39160796E-02  6.84053245E-02
  2.33185760E-01  4.71267439E-01  3.56618546E-01 -1.08506975E-01 -1.46451658E-01
  1.12868858E+00  1.00000000E+00  1.00000000E+00  1.81961690E-03  1.39160796E-02
  6.84053245E-02  2.33185760E-01  4.71267439E-01  3.56618546E-01 -1.08506975E-01
 -1.46451658E-01  1.12868858E+00  1.00000000E+00  1.00000000E+00  1.81961690E-03
  1.39160796E-02  6.84053245E-02  2.33185760E-01  4.71267439E-01  3.56618546E-01
 -1.08506975E-01 -1.46451658E-01  1.12868858E+00  1.00000000E+00  1.00000000E+00
  1.81961690E-03  1.39160796E-02  6.84053245E-02  2.33185760E-01  4.71267439E-01
  3.56618546E-01 -1.08506975E-01 -1.46451658E-01  1.12868858E+00  1.00000000E+00
  1.00000000E+00  1.81961690E-03  1.39160796E-02  6.84053245E-02  2.33185760E-01
  4.71267439E-01  3.56618546E-01 -1.08506975E-01 -1.46451658E-01  1.12868858E+00
  1.00000000E+00  1.00000000E+00  1.81961690E-03  1.39160796E-02  6.84053245E-02
  2.33185760E-01  4.71267439E-01  3.56618546E-01 -1.08506975E-01 -1.46451658E-01
  1.12868858E+00  1.00000000E+00  1.00000000E+00
P(S=P) Contraction coefficients            R   N=          83
  0.00000000E+00  0.00000000E+00  0.00000000E+00  0.00000000E+00  0.00000000E+00
  0.00000000E+00  4.06100998E-03  3.06812999E-02  1.30451999E-01  3.27204999E-01
  4.52850998E-01  2.56041999E-01 -1.45104895E-02  3.10262776E-01  7.54482456E-01
  1.00000000E+00  0.00000000E+00  0.00000000E+00  0.00000000E+00  0.00000000E+00
  0.00000000E+00  0.00000000E+00  0.00000000E+00  7.16287242E-02  3.45912103E-01
  7.22469956E-01  1.00000000E+00  0.00000000E+00  0.00000000E+00  0.00000000E+00
  0.00000000E+00  0.00000000E+00  0.00000000E+00  0.00000000E+00  7.16287242E-02
  3.45912103E-01  7.22469956E-01  1.00000000E+00  0.00000000E+00  0.00000000E+00
  0.00000000E+00  0.00000000E+00  0.00000000E+00  0.00000000E+00  0.00000000E+00
  7.16287242E-02  3.45912103E-01  7.22469956E-01  1.00000000E+00  0.00000000E+00
  0.00000000E+00  0.00000000E+00  0.00000000E+00  0.00000000E+00  0.00000000E+00
  0.00000000E+00  7.16287242E-02  3.45912103E-01  7.22469956E-01  1.00000000E+00
  0.00000000E+00  0.00000000E+00  0.00000000E+00  0.00000000E+00  0.00000000E+00
  0.00000000E+00  0.00000000E+00  7.16287242E-02  3.45912103E-01  7.22469956E-01
  1.00000000E+00  0.00000000E+00  0.00000000E+00  0.00000000E+00  0.00000000E+00
  0.00000000E+00  0.00000000E+00  0.00000000E+00  7.16287242E-02  3.45912103E-01
  7.22469956E-01  1.00000000E+00  0.00000000E+00
Coordinates of each shell                  R   N=          87
  0.00000000E+00  0.00000000E+00  0.00000000E+00  0.00000000E+00  0.00000000E+00
  0.00000000E+00  0.00000000E+00  0.00000000E+00  0.00000000E+00  0.00000000E+00
  0.00000000E+00  0.00000000E+00  0.00000000E+00  0.00000000E+00  0.00000000E+00
  0.00000000E+00  0.00000000E+00  3.02369787E+00  0.00000000E+00  0.00000000E+00
  3.02369787E+00  0.00000000E+00  0.00000000E+00  3.02369787E+00  0.00000000E+00
  0.00000000E+00  3.02369787E+00  0.00000000E+00  3.02369787E+00  0.00000000E+00
  0.00000000E+00  3.02369787E+00  0.00000000E+00  0.00000000E+00  3.02369787E+00
  0.00000000E+00  0.00000000E+00  3.02369787E+00  0.00000000E+00  0.00000000E+00
  0.00000000E+00 -3.02369787E+00  0.00000000E+00  0.00000000E+00 -3.02369787E+00
  0.00000000E+00  0.00000000E+00 -3.02369787E+00  0.00000000E+00  0.00000000E+00
 -3.02369787E+00  0.00000000E+00 -3.02369787E+00  0.00000000E+00  0.00000000E+00
 -3.02369787E+00  0.00000000E+00  0.00000000E+00 -3.02369787E+00  0.00000000E+00
  0.00000000E+00 -3.02369787E+00  0.00000000E+00  3.02369787E+00  0.00000000E+00
  0.00000000E+00  3.02369787E+00  0.00000000E+00  0.00000000E+00  3.02369787E+00
  0.00000000E+00  0.00000000E+00  3.02369787E+00  0.00000000E+00  0.00000000E+00
 -3.02369787E+00  0.00000000E+00  0.00000000E+00 -3.02369787E+00  0.00000000E+00
  0.00000000E+00 -3.02369787E+00  0.00000000E+00  0.00000000E+00 -3.02369787E+00
  0.00000000E+00  0.00000000E+00
Constraint Structure                       R   N=          21
  0.00000000E+00  0.00000000E+00  0.00000000E+00  0.00000000E+00  0.00000000E+00
  3.02369787E+00  0.00000000E+00  3.02369787E+00  0.00000000E+00  0.00000000E+00
  0.00000000E+00 -3.02369787E+00  0.00000000E+00 -3.02369787E+00  0.00000000E+00
  3.02369787E+00  0.00000000E+00  0.00000000E+00 -3.02369787E+00  0.00000000E+00
  0.00000000E+00
Num ILSW                                   I              100
ILSW                                       I   N=         100
           1           0           0           0           2           0
           0           0           0           0         402          -1
           0           0           0           0           0           0
           0           0           1           0           0           0
           1           1           0           0           0           0
           0           0      100000           0          -1           0
           0           0           0           0           0           0
           0           0           0           1           0           0
           0           0           1           0           0           0
           0           0           4          41           0           0
           0           0           5           0           0           0
           0           0           0           0           0           0
           0           0           0           0           0           0
           0           0           0           0           0           0
           0           0           0           0           0           0
           0           0           0           0           0           0
           0           0           0           0
Num RLSW                                   I               41
RLSW                                       R   N=          41
  8.00000000E-01  7.20000000E-01  1.00000000E+00  8.10000000E-01  2.00000000E-01
  0.00000000E+00  0.00000000E+00  1.00000000E+00  0.00000000E+00  0.00000000E+00
  0.00000000E+00  0.00000000E+00  1.00000000E+00  0.00000000E+00  0.00000000E+00
  0.00000000E+00  0.00000000E+00  1.00000000E+00  0.00000000E+00  0.00000000E+00
  0.00000000E+00  0.00000000E+00  1.00000000E+00  0.00000000E+00  0.00000000E+00
  0.00000000E+00  0.00000000E+00  1.00000000E+00  0.00000000E+00  0.00000000E+00
  0.00000000E+00  0.00000000E+00  1.00000000E+00  0.00000000E+00  0.00000000E+00
  0.00000000E+00  0.00000000E+00  0.00000000E+00  1.00000000E+00  1.00000000E+00
  0.00000000E+00
MxBond                                     I                6
NBond                                      I   N=           7
           6           1           1           1           1           1
           1
IBond                                      I   N=          42
           2           3           4           5           6           7
           1           0           0           0           0           0
           1           0           0           0           0           0
           1           0           0           0           0           0
           1           0           0           0           0           0
           1           0           0           0           0           0
           1           0           0           0           0           0
RBond                                      R   N=          42
  1.00000000E+00  1.00000000E+00  1.00000000E+00  1.00000000E+00  1.00000000E+00
  1.00000000E+00  1.00000000E+00  0.00000000E+00  0.00000000E+00  0.00000000E+00
  0.00000000E+00  0.00000000E+00  1.00000000E+00  0.00000000E+00  0.00000000E+00
  0.00000000E+00  0.00000000E+00  0.00000000E+00  1.00000000E+00  0.00000000E+00
  0.00000000E+00  0.00000000E+00  0.00000000E+00  0.00000000E+00  1.00000000E+00
  0.00000000E+00  0.00000000E+00  0.00000000E+00  0.00000000E+00  0.00000000E+00
  1.00000000E+00  0.00000000E+00  0.00000000E+00  0.00000000E+00  0.00000000E+00
  0.00000000E+00  1.00000000E+00  0.00000000E+00  0.00000000E+00  0.00000000E+00
  0.00000000E+00  0.00000000E+00
Virial Ratio                               R      2.002116035427991E+00
SCF Energy                                 R     -9.970786776966781E+02
Total Energy                               R     -9.970786776966781E+02
S**2                                       R      7.510783826526435E-01
S**2 after annihilation                    R      7.500011075434169E-01
RMS Density                                R      3.597863422787697E-09
Job Status                                 I                1
Nuclear derivative order                   I                0
External E-field                           R   N=          35
  0.00000000E+00  0.00000000E+00  0.00000000E+00  0.00000000E+00  0.00000000E+00
  0.00000000E+00  0.00000000E+00  0.00000000E+00  0.00000000E+00  0.00000000E+00
  0.00000000E+00  0.00000000E+00  0.00000000E+00  0.00000000E+00  0.00000000E+00
  0.00000000E+00  0.00000000E+00  0.00000000E+00  0.00000000E+00  0.00000000E+00
  0.00000000E+00  0.00000000E+00  0.00000000E+00  0.00000000E+00  0.00000000E+00
  0.00000000E+00  0.00000000E+00  0.00000000E+00  0.00000000E+00  0.00000000E+00
  0.00000000E+00  0.00000000E+00  0.00000000E+00  0.00000000E+00  0.00000000E+00
IOpCl                                      I                1
IROHF                                      I                0
Alpha Orbital Energies                     R   N=         102
 -8.89417770E+01 -2.44608444E+01 -2.44607921E+01 -2.44607921E+01 -2.44607921E+01
 -2.44607117E+01 -2.44607117E+01 -7.96689540E+00 -5.92864354E+00 -5.92864354E+00
 -5.92864354E+00 -1.09795641E+00 -9.89456153E-01 -9.89456153E-01 -9.89456153E-01
 -9.46331185E-01 -9.46331185E-01 -5.42573957E-01 -3.82203189E-01 -3.82203189E-01
 -3.82203189E-01 -2.69568269E-01 -2.69568269E-01 -2.69568269E-01 -2.50732546E-01
 -2.50732546E-01 -1.94525025E-01 -1.94525025E-01 -1.94525025E-01 -1.86976911E-01
 -1.86976911E-01 -1.86976911E-01 -1.48998088E-01 -1.48998088E-01 -1.48998088E-01
  1.30032176E-01  3.79518372E-01  3.79518372E-01  3.79518372E-01  5.23338551E-01
  5.70657961E-01  5.70657961E-01  5.70657961E-01  7.85371520E-01  7.85371520E-01
  7.85371520E-01  1.20284929E+00  1.20284929E+00  1.31934043E+00  1.31934043E+00
  1.31934043E+00  1.38107257E+00  1.38107257E+00  1.38107257E+00  1.38305509E+00
  1.41327985E+00  1.41327985E+00  1.41327985E+00  1.44461448E+00  1.44461448E+00
  1.61954174E+00  1.61954174E+00  1.61954174E+00  1.72969334E+00  1.72969334E+00
  1.72969334E+00  1.74822940E+00  1.74822940E+00  1.90750331E+00  1.90750331E+00
  1.90750331E+00  1.94351339E+00  2.04837575E+00  2.04837575E+00  2.04837575E+00
  2.07784928E+00  2.07784928E+00  2.16574281E+00  2.16574281E+00  2.18102323E+00
  2.22836100E+00  2.22836100E+00  2.22836100E+00  2.24609003E+00  2.24609003E+00
  2.24609003E+00  2.29160757E+00  2.29160757E+00  2.29160757E+00  2.31575944E+00
  2.31575944E+00  2.31575944E+00  2.40697610E+00  2.40697610E+00  2.40697610E+00
  2.59619067E+00  2.78704542E+00  2.78808778E+00  2.78808778E+00  2.78808778E+00
  3.30514040E+00  3.30514040E+00
Beta Orbital Energies                      R   N=         102
 -8.89346549E+01 -2.44559207E+01 -2.44558763E+01 -2.44558763E+01 -2.44558763E+01
 -2.44557991E+01 -2.44557991E+01 -7.95638623E+00 -5.92151230E+00 -5.92151230E+00
 -5.92151230E+00 -1.08357980E+00 -9.77670161E-01 -9.77670161E-01 -9.77670161E-01
 -9.34858186E-01 -9.34858186E-01 -5.21373592E-01 -3.67274751E-01 -3.67274751E-01
 -3.67274751E-01 -2.65336802E-01 -2.65336802E-01 -2.65336802E-01 -2.28644864E-01
 -2.28644864E-01 -1.85947091E-01 -1.85947091E-01 -1.85947091E-01 -1.82644076E-01
 -1.82644076E-01 -1.82644076E-01 -1.44400695E-01 -1.44400695E-01 -1.44400695E-01
  2.28517843E-01  4.10185213E-01  4.10185213E-01  4.10185213E-01  5.25976066E-01
  5.77198295E-01  5.77198295E-01  5.77198295E-01  8.00071559E-01  8.00071559E-01
  8.00071559E-01  1.22015941E+00  1.22015941E+00  1.32520844E+00  1.32520844E+00
  1.32520844E+00  1.38959473E+00  1.38959473E+00  1.38959473E+00  1.39619464E+00
  1.41568672E+00  1.41568672E+00  1.41568672E+00  1.45575203E+00  1.45575203E+00
  1.62316442E+00  1.62316442E+00  1.62316442E+00  1.73560545E+00  1.73560545E+00
  1.73560545E+00  1.75267742E+00  1.75267742E+00  1.91069859E+00  1.91069859E+00
  1.91069859E+00  1.94417232E+00  2.04906511E+00  2.04906511E+00  2.04906511E+00
  2.07853316E+00  2.07853316E+00  2.17156662E+00  2.17156662E+00  2.18179677E+00
  2.22970095E+00  2.22970095E+00  2.22970095E+00  2.25321383E+00  2.25321383E+00
  2.25321383E+00  2.29411660E+00  2.29411660E+00  2.29411660E+00  2.32693936E+00
  2.32693936E+00  2.32693936E+00  2.41016014E+00  2.41016014E+00  2.41016014E+00
  2.60497176E+00  2.79580226E+00  2.79828207E+00  2.79828207E+00  2.79828207E+00
  3.31611893E+00  3.31611893E+00
Alpha MO coefficients                      R   N=       10404
  9.96554087E-01  1.28791407E-02 -2.66893786E-17  3.73808525E-16 -3.94774683E-16
 -5.71569115E-03  5.22165041E-16  4.21336761E-16 -2.34247536E-16 -1.19062200E-03
  3.01905827E-15 -2.98999310E-15  2.25708153E-15  1.82825362E-16  4.15596908E-17
 -1.65737201E-16 -9.99728288E-16 -2.43589541E-16 -2.81077605E-05 -5.24265250E-04
  4.80272403E-16  1.41338420E-17  1.25183661E-04  1.34057539E-03 -1.10602165E-15
  4.08136739E-16 -1.03404935E-03  5.42014776E-04  6.09732347E-16 -4.91876963E-16
 -2.06669656E-16  1.56683473E-16 -2.81077605E-05 -5.24265250E-04  6.63601910E-16
  1.25183661E-04  1.17839151E-16  1.34057539E-03 -1.19700313E-15 -1.03404935E-03
 -3.49033865E-16 -2.71007388E-04  3.46596809E-17 -3.80728784E-16 -4.69398566E-04
  9.53264113E-16 -2.81077605E-05 -5.24265250E-04  3.98332287E-16 -3.45917354E-16
 -1.25183661E-04  1.34057539E-03 -9.74286634E-16  8.84462656E-16  1.03404935E-03
  5.42014776E-04 -4.34484578E-16  8.24284443E-16 -1.53035663E-16  5.61798995E-17
 -2.81077605E-05 -5.24265250E-04  5.83678638E-16 -1.25183661E-04  4.10402557E-16
  1.34057539E-03 -1.18447717E-15  1.03404935E-03 -8.05703797E-16 -2.71007388E-04
 -9.17419946E-17 -5.90950961E-16 -4.69398566E-04 -9.78948554E-16 -2.81077605E-05
 -5.24265250E-04  1.25183661E-04 -1.28017643E-16  2.27798799E-16  1.34057539E-03
 -1.03404935E-03  6.75457776E-16 -4.59692918E-16 -2.71007388E-04  4.86165926E-17
  9.72132987E-17  4.69398566E-04 -2.28840340E-16 -2.81077605E-05 -5.24265250E-04
 -1.25183661E-04  7.44801081E-17  2.09279300E-16  1.34057539E-03  1.03404935E-03
  3.32177395E-16 -5.31050916E-16 -2.71007388E-04 -1.77817208E-16 -7.62595531E-17
  4.69398566E-04 -6.92140244E-17  3.36376331E-05 -1.22786089E-03 -4.64841414E-14
  6.81679507E-13 -2.05502156E-13 -2.35467034E-03  2.89723498E-13 -4.22264552E-12
  1.27571724E-12  1.82255885E-02  9.72874882E-13 -1.42227739E-11  4.29380263E-12
 -1.77775146E-12 -1.86458614E-16  4.68702065E-16  1.12702438E-12  8.76597141E-16
  4.06217487E-01  1.20965911E-02  1.80194168E-14 -2.55054511E-13 -4.03593376E-04
 -8.45833686E-03 -1.38311643E-13  2.01341373E-12  2.00165137E-03 -1.71751354E-04
  2.31678161E-14 -3.36196530E-13  1.39824958E-13 -1.08744659E-16  4.06217486E-01
  1.20965910E-02  1.82745473E-14 -4.03593374E-04  7.70367916E-14 -8.45833684E-03
 -1.38479856E-13  2.00165136E-03 -6.08148265E-13  8.58756766E-05 -1.15317243E-16
  1.02183744E-13  1.48741036E-04  2.44350101E-14  4.06217486E-01  1.20965910E-02
  1.79948303E-14 -2.54795935E-13  4.03593375E-04 -8.45833685E-03 -1.38366075E-13
  2.01343268E-12 -2.00165137E-03 -1.71751354E-04 -2.34585610E-14  3.36439180E-13
  1.40374089E-13 -1.29857205E-16  4.06217489E-01  1.20965911E-02  1.78493262E-14
  4.03593377E-04  7.72011183E-14 -8.45833688E-03 -1.37882730E-13 -2.00165137E-03
 -6.07988165E-13  8.58756773E-05 -2.76836269E-17 -1.01430359E-13  1.48741037E-04
 -2.22109078E-14  4.06217488E-01  1.20965911E-02 -4.03593377E-04 -2.55108774E-13
  7.70794800E-14 -8.45833687E-03  2.00165137E-03  2.01422467E-12 -6.07778349E-13
  8.58756774E-05  1.01608195E-13 -1.22296902E-16 -1.48741037E-04 -3.36217447E-13
  4.06217488E-01  1.20965911E-02  4.03593376E-04 -2.54776228E-13  7.68308371E-14
 -8.45833687E-03 -2.00165137E-03  2.01365773E-12 -6.07950504E-13  8.58756773E-05
 -1.01631889E-13  5.00043243E-17 -1.48741037E-04  3.37000455E-13 -2.94246595E-14
  1.07382418E-12 -3.17400023E-04  1.44676048E-04  3.01495682E-05  2.05828785E-12
  1.96639158E-03 -8.96312988E-04 -1.86785925E-04 -1.59370867E-11  6.62585425E-03
 -3.02017120E-03 -6.29384466E-04 -3.69033406E-13 -5.88177830E-16  3.09255617E-16
 -3.26452072E-13  1.89754749E-16 -6.05826441E-02 -1.72140354E-03  1.18823580E-04
 -5.41617034E-05  6.54607802E-05  9.46203015E-04 -9.38108167E-04  4.27604828E-04
 -1.95969968E-04  3.03769666E-05  1.56731701E-04 -7.14408364E-05 -4.05437192E-14
 -9.53828755E-17 -2.90712538E-01 -8.26034583E-03  1.18823580E-04  3.14120815E-04
 -1.12869545E-05  4.54046012E-03 -9.38108167E-04 -9.40383628E-04  8.91101262E-05
 -7.28836219E-05  8.05031809E-16 -1.48878159E-05 -1.26238136E-04  1.56731701E-04
  6.05826432E-02  1.72140351E-03  1.18823580E-04 -5.41617034E-05  6.54607792E-05
 -9.46202999E-04 -9.38108167E-04  4.27604828E-04 -1.95969964E-04 -3.03769661E-05
 -1.56731701E-04  7.14408364E-05 -4.07869686E-14 -1.32641100E-15  2.90712537E-01
  8.26034582E-03  1.18823580E-04  3.14120815E-04 -1.12869545E-05 -4.54046011E-03
 -9.38108167E-04 -9.40383625E-04  8.91101262E-05  7.28836218E-05  2.27524071E-17
  1.48878159E-05  1.26238136E-04 -1.56731701E-04  6.37784673E-01  1.81221010E-02
 -6.89139323E-04 -5.41617034E-05 -1.12869545E-05 -9.96116610E-03  2.06307670E-03
  4.27604828E-04  8.91101262E-05  1.59896981E-04 -1.48878159E-05  7.09063068E-16
 -2.76949694E-04 -7.14408364E-05 -6.37784674E-01 -1.81221010E-02 -6.89139324E-04
 -5.41617034E-05 -1.12869545E-05  9.96116611E-03  2.06307671E-03  4.27604828E-04
  8.91101262E-05 -1.59896981E-04  1.48878159E-05 -3.20829344E-16  2.76949695E-04
  7.14408364E-05  4.75015871E-14 -1.73483764E-12 -1.46367940E-04 -2.97882153E-04
 -1.11470082E-04 -3.32445850E-12  9.06794783E-04  1.84547232E-03  6.90591728E-04
  2.57525945E-11  3.05549013E-03  6.21841079E-03  2.32698318E-03  1.21886830E-12
  1.07138183E-15 -1.91465200E-16  1.77823713E-12  9.65158629E-16  2.23988358E-01
  6.36443586E-03  5.47950891E-05  1.11516765E-04 -2.42023980E-04 -3.49833624E-03
 -4.32605387E-04 -8.80421109E-04  7.24547301E-04 -1.12310827E-04  7.22762903E-05
  1.47093803E-04  2.21094532E-13  3.32408380E-16  5.98565400E-01  1.70077192E-02
  5.47950891E-05 -6.46762099E-04  4.17305392E-05 -9.34862442E-03 -4.32605387E-04
  1.93621199E-03 -3.29461205E-04  1.50064440E-04  6.23151228E-17  5.50437752E-05
  2.59919235E-04  7.22762903E-05 -2.23988356E-01 -6.36443580E-03  5.47950891E-05
  1.11516765E-04 -2.42023978E-04  3.49833621E-03 -4.32605387E-04 -8.80421109E-04
  7.24547294E-04  1.12310826E-04 -7.22762903E-05 -1.47093803E-04  2.21898697E-13
  7.81522301E-18 -5.98565400E-01 -1.70077192E-02  5.47950891E-05 -6.46762100E-04
  4.17305392E-05  9.34862441E-03 -4.32605387E-04  1.93621199E-03 -3.29461205E-04
 -1.50064441E-04 -2.76153029E-16 -5.50437752E-05 -2.59919236E-04 -7.22762903E-05
  2.94112231E-01  8.35694520E-03 -3.17794253E-04  1.11516765E-04  4.17305392E-05
 -4.59355785E-03  9.51380802E-04 -8.80421109E-04 -3.29461205E-04  7.37359486E-05
  5.50437752E-05  1.30354092E-16 -1.27714409E-04  1.47093803E-04 -2.94112230E-01
 -8.35694515E-03 -3.17794251E-04  1.11516765E-04  4.17305392E-05  4.59355782E-03
  9.51380795E-04 -8.80421109E-04 -3.29461205E-04 -7.37359477E-05 -5.50437752E-05
 -5.22132010E-16  1.27714408E-04 -1.47093803E-04 -3.99001975E-14  1.44787005E-12
  2.04103285E-05  1.13657354E-04 -3.30527389E-04  2.77591651E-12 -1.26448315E-04
 -7.04142556E-04  2.04771968E-03 -2.14806359E-11 -4.26073888E-04 -2.37264337E-03
  6.89989332E-03 -4.32494576E-13  2.26472892E-16 -6.30596674E-16 -1.26739386E-12
  3.24496488E-17  6.64162845E-01  1.88716140E-02 -7.64092035E-06 -4.25493782E-05
 -7.17641474E-04 -1.03731505E-02  6.03248093E-05  3.35925910E-04  2.14840361E-03
 -3.33020337E-04 -1.00785926E-05 -5.61238472E-05 -1.57128834E-13 -9.96664965E-16
 -2.28383469E-01 -6.48931914E-03 -7.64092035E-06  2.46772987E-04  1.23738011E-04
  3.56698078E-03  6.03248093E-05 -7.38764405E-04 -9.76907435E-04 -5.72572978E-05
  1.11038760E-17  1.63213976E-04 -9.91725490E-05 -1.00785926E-05 -6.64162846E-01
 -1.88716140E-02 -7.64092035E-06 -4.25493782E-05 -7.17641476E-04  1.03731505E-02
  6.03248093E-05  3.35925910E-04  2.14840361E-03  3.33020338E-04  1.00785926E-05
  5.61238472E-05 -1.57751105E-13 -6.11440394E-16  2.28383469E-01  6.48931913E-03
 -7.64092035E-06  2.46772987E-04  1.23738011E-04 -3.56698077E-03  6.03248093E-05
 -7.38764403E-04 -9.76907435E-04  5.72572981E-05  5.04902254E-16 -1.63213976E-04
  9.91725493E-05  1.00785926E-05 -4.10125835E-02 -1.16533716E-03  4.43149314E-05
 -4.25493782E-05  1.23738011E-04  6.40550290E-04 -1.32665631E-04  3.35925910E-04
 -9.76907435E-04 -1.02821354E-05  1.63213976E-04  7.26860032E-17  1.78091807E-05
 -5.61238472E-05  4.10125820E-02  1.16533712E-03  4.43149298E-05 -4.25493782E-05
  1.23738011E-04 -6.40550265E-04 -1.32665625E-04  3.35925910E-04 -9.76907435E-04
  1.02821347E-05 -1.63213976E-04  1.40647494E-16 -1.78091800E-05  5.61238472E-05
  7.41081556E-15 -2.82242977E-13 -9.88431879E-14 -4.22095647E-13  9.86631669E-14
 -5.45600289E-13  6.10964626E-13  2.61415501E-12 -6.13554910E-13  4.20236753E-12
  2.05747365E-12  8.81783794E-12 -2.08067873E-12 -6.72674033E-04 -8.03421645E-18
 -1.14625484E-16 -1.86236961E-03  1.53472597E-16 -1.95128632E-01 -5.25099796E-03
  3.58175838E-14  1.58596476E-13  2.51468934E-04  1.90807914E-03 -2.90802064E-13
 -1.24876716E-12 -5.80269618E-04  2.10015213E-04  4.88591663E-14  2.08412973E-13
 -2.31829865E-04  2.50894318E-16  5.65421009E-01  1.52157299E-02  3.62099331E-14
 -7.28677366E-04 -3.69214921E-14 -5.52900934E-03 -2.90632291E-13  1.68143767E-03
  2.94399514E-13  3.41862663E-04 -3.52650344E-17 -4.85501906E-14  5.05327294E-04
  4.89262177E-14 -1.95128632E-01 -5.25099795E-03  3.65360462E-14  1.58567908E-13
 -2.51468933E-04  1.90807913E-03 -2.90871905E-13 -1.24932161E-12  5.80269617E-04
  2.10015213E-04 -4.88711773E-14 -2.09147274E-13 -2.31829865E-04  1.27305671E-17
  5.65421007E-01  1.52157298E-02  3.60051710E-14  7.28677365E-04 -3.74946243E-14
 -5.52900931E-03 -2.89831509E-13 -1.68143766E-03  2.95116708E-13  3.41862663E-04
 -1.45263427E-16  4.87344543E-14  5.05327293E-04 -4.80597405E-14 -3.70292375E-01
 -9.96473188E-03  4.77208432E-04  1.57908779E-13 -3.79666782E-14  3.62093018E-03
 -1.10116805E-03 -1.24832647E-12  2.95645779E-13 -3.62457888E-04 -4.96071567E-14
  1.74849602E-16  2.50931956E-04  2.08034109E-13 -3.70292375E-01 -9.96473189E-03
 -4.77208432E-04  1.57987166E-13 -3.81700745E-14  3.62093019E-03  1.10116805E-03
 -1.24856857E-12  2.95522629E-13 -3.62457888E-04  4.96666783E-14  2.89101466E-16
  2.50931956E-04 -2.08699589E-13  3.46121060E-14 -1.27375433E-12  1.48037957E-15
  9.69916094E-14  3.82458291E-14 -2.44658537E-12 -1.07448634E-14 -6.01308997E-13
 -2.36215964E-13  1.89176322E-11 -3.83575574E-14 -2.03105040E-12 -7.97724495E-13