 Entering Gaussian System, Link 0=/opt/g09E01ES64L/g09/g09
 Initial command:
 /opt/g09E01ES64L/g09/l1.exe "/home/scratch/Gau-24525.inp" -scrdir="/home/scratch/"
 Entering Link 1 = /opt/g09E01ES64L/g09/l1.exe PID=     24526.
  
 Copyright (c) 1988,1990,1992,1993,1995,1998,2003,2009,2015,
            Gaussian, Inc.  All Rights Reserved.
  
 This is part of the Gaussian(R) 09 program.  It is based on
 the Gaussian(R) 03 system (copyright 2003, Gaussian, Inc.),
 the Gaussian(R) 98 system (copyright 1998, Gaussian, Inc.),
 the Gaussian(R) 94 system (copyright 1995, Gaussian, Inc.),
 the Gaussian 92(TM) system (copyright 1992, Gaussian, Inc.),
 the Gaussian 90(TM) system (copyright 1990, Gaussian, Inc.),
 the Gaussian 88(TM) system (copyright 1988, Gaussian, Inc.),
 the Gaussian 86(TM) system (copyright 1986, Carnegie Mellon
 University), and the Gaussian 82(TM) system (copyright 1983,
 Carnegie Mellon University). Gaussian is a federally registered
 trademark of Gaussian, Inc.
  
 This software contains proprietary and confidential information,
 including trade secrets, belonging to Gaussian, Inc.
  
 This software is provided under written license and may be
 used, copied, transmitted, or stored only in accord with that
 written license.
  
 The following legend is applicable only to US Government
 contracts under FAR:
  
                    RESTRICTED RIGHTS LEGEND
  
 Use, reproduction and disclosure by the US Government is
 subject to restrictions as set forth in subparagraphs (a)
 and (c) of the Commercial Computer Software - Restricted
 Rights clause in FAR 52.227-19.
  
 Gaussian, Inc.
 340 Quinnipiac St., Bldg. 40, Wallingford CT 06492
  
  
 ---------------------------------------------------------------
 Warning -- This program may not be used in any manner that
 competes with the business of Gaussian, Inc. or will provide
 assistance to any competitor of Gaussian, Inc.  The licensee
 of this program is prohibited from giving any competitor of
 Gaussian, Inc. access to this program.  By using this program,
 the user acknowledges that Gaussian, Inc. is engaged in the
 business of creating and licensing software in the field of
 computational chemistry and represents and warrants to the
 licensee that it is not a competitor of Gaussian, Inc. and that
 it will not use this program in any manner prohibited above.
 ---------------------------------------------------------------
  

 Cite this work as:
 Gaussian 09, Revision E.01,
 M. J. Frisch, G. W. Trucks, H. B. Schlegel, G. E. Scuseria, 
 M. A. Robb, J. R. Cheeseman, G. Scalmani, V. Barone, B. Mennucci, 
 G. A. Petersson, H. Nakatsuji, M. Caricato, X. Li, H. P. Hratchian, 
 A. F. Izmaylov, J. Bloino, G. Zheng, J. L. Sonnenberg, M. Hada, 
 M. Ehara, K. Toyota, R. Fukuda, J. Hasegawa, M. Ishida, T. Nakajima, 
 Y. Honda, O. Kitao, H. Nakai, T. Vreven, J. A. Montgomery, Jr., 
 J. E. Peralta, F. Ogliaro, M. Bearpark, J. J. Heyd, E. Brothers, 
 K. N. Kudin, V. N. Staroverov, T. Keith, R. Kobayashi, J. Normand, 
 K. Raghavachari, A. Rendell, J. C. Burant, S. S. Iyengar, J. Tomasi, 
 M. Cossi, N. Rega, J. M. Millam, M. Klene, J. E. Knox, J. B. Cross, 
 V. Bakken, C. Adamo, J. Jaramillo, R. Gomperts, R. E. Stratmann, 
 O. Yazyev, A. J. Austin, R. Cammi, C. Pomelli, J. W. Ochterski, 
 R. L. Martin, K. Morokuma, V. G. Zakrzewski, G. A. Voth, 
 P. Salvador, J. J. Dannenberg, S. Dapprich, A. D. Daniels, 
 O. Farkas, J. B. Foresman, J. V. Ortiz, J. Cioslowski, 
 and D. J. Fox, Gaussian, Inc., Wallingford CT, 2013.
 
 ******************************************
 Gaussian 09:  ES64L-G09RevE.01 30-Nov-2015
                 4-Feb-2021 
 ******************************************
 %chk=SF6_N-2.chk
 %mem=20GB
 %nprocshared=16
 Will use up to   16 processors via shared memory.
 ---------------------------
 # UB3LYP/6-31g(d) NoSymm 5D
 ---------------------------
 1/38=1/1;
 2/12=2,15=1,17=6,18=5,40=1/2;
 3/5=1,6=6,7=1,8=1,11=2,16=1,25=1,30=1,74=-5,116=2/1,2,3;
 4//1;
 5/5=2,38=5/2;
 6/7=2,8=2,9=2,10=2,28=1/1;
 99/5=1,9=1/99;
 -------------------------------------------------------------
 Single point of SF6^+2 at the UB3LYP/6-31G(d) level of theory
 -------------------------------------------------------------
 Symbolic Z-matrix:
 Charge =  2 Multiplicity = 3
 S                     0.        0.        0. 
 F                     0.        0.        1.60007 
 F                     0.        1.60007   0. 
 F                     0.        0.       -1.60007 
 F                     0.       -1.60007   0. 
 F                     1.60007   0.        0. 
 F                    -1.60007   0.        0. 
 
                          Input orientation:                          
 ---------------------------------------------------------------------
 Center     Atomic      Atomic             Coordinates (Angstroms)
 Number     Number       Type             X           Y           Z
 ---------------------------------------------------------------------
      1         16           0        0.000000    0.000000    0.000000
      2          9           0        0.000000    0.000000    1.600072
      3          9           0        0.000000    1.600072    0.000000
      4          9           0        0.000000    0.000000   -1.600072
      5          9           0        0.000000   -1.600072    0.000000
      6          9           0        1.600072    0.000000    0.000000
      7          9           0       -1.600072    0.000000    0.000000
 ---------------------------------------------------------------------
                    Distance matrix (angstroms):
                    1          2          3          4          5
     1  S    0.000000
     2  F    1.600072   0.000000
     3  F    1.600072   2.262844   0.000000
     4  F    1.600072   3.200144   2.262844   0.000000
     5  F    1.600072   2.262844   3.200144   2.262844   0.000000
     6  F    1.600072   2.262844   2.262844   2.262844   2.262844
     7  F    1.600072   2.262844   2.262844   2.262844   2.262844
                    6          7
     6  F    0.000000
     7  F    3.200144   0.000000
 Symmetry turned off by external request.
 Stoichiometry    F6S(2+,3)
 Framework group  OH[O(S),3C4(F.F)]
 Deg. of freedom     1
 Full point group                 OH      NOp  48
 Rotational constants (GHZ):      2.5975329      2.5975329      2.5975329
 Standard basis: 6-31G(d) (5D, 7F)
   102 basis functions,   220 primitive gaussians,   109 cartesian basis functions
    35 alpha electrons       33 beta electrons
       nuclear repulsion energy       553.2324529864 Hartrees.
 NAtoms=    7 NActive=    7 NUniq=    7 SFac= 1.00D+00 NAtFMM=   60 NAOKFM=F Big=F
 Integral buffers will be    131072 words long.
 Raffenetti 2 integral format.
 Two-electron integral symmetry is turned off.
 One-electron integrals computed using PRISM.
 NBasis=   102 RedAO= T EigKep=  1.70D-02  NBF=   102
 NBsUse=   102 1.00D-06 EigRej= -1.00D+00 NBFU=   102
 ExpMin= 1.17D-01 ExpMax= 2.19D+04 ExpMxC= 3.30D+03 IAcc=1 IRadAn=         1 AccDes= 0.00D+00
 Harris functional with IExCor=  402 and IRadAn=       1 diagonalized for initial guess.
 HarFok:  IExCor=  402 AccDes= 0.00D+00 IRadAn=         1 IDoV= 1 UseB2=F ITyADJ=14
 ICtDFT=  3500011 ScaDFX=  1.000000  1.000000  1.000000  1.000000
 FoFCou: FMM=F IPFlag=           0 FMFlag=      100000 FMFlg1=           0
         NFxFlg=           0 DoJE=T BraDBF=F KetDBF=T FulRan=T
         wScrn=  0.000000 ICntrl=     500 IOpCl=  0 I1Cent=   200000004 NGrid=           0
         NMat0=    1 NMatS0=      1 NMatT0=    0 NMatD0=    1 NMtDS0=    0 NMtDT0=    0
 Symmetry not used in FoFCou.
 Initial guess <Sx>= 0.0000 <Sy>= 0.0000 <Sz>= 1.0000 <S**2>= 2.0000 S= 1.0000
 Keep R1 and R2 ints in memory in canonical form, NReq=28587011.
 Requested convergence on RMS density matrix=1.00D-08 within 128 cycles.
 Requested convergence on MAX density matrix=1.00D-06.
 Requested convergence on             energy=1.00D-06.
 No special actions if energy rises.
 Integral accuracy reduced to 1.0D-05 until final iterations.
 Rare condition: small coef for last iteration:  0.000D+00
 Problem detected with inexpensive integrals.
 Switching to full accuracy and repeating last cycle.
 Rare condition: small coef for last iteration:  0.000D+00
 SCF Done:  E(UB3LYP) =  -995.760698686     A.U. after   46 cycles
            NFock= 46  Conv=0.77D-08     -V/T= 2.0043
 <Sx>= 0.0000 <Sy>= 0.0000 <Sz>= 1.0000 <S**2>= 2.0076 S= 1.0025
 <L.S>= 0.000000000000E+00
 Annihilation of the first spin contaminant:
 S**2 before annihilation     2.0076,   after     2.0000

 **********************************************************************

            Population analysis using the SCF density.

 **********************************************************************

 Alpha  occ. eigenvalues --  -89.89493 -25.38107 -25.38106 -25.38106 -25.38099
 Alpha  occ. eigenvalues --  -25.36703 -25.36699  -8.90018  -6.86650  -6.86647
 Alpha  occ. eigenvalues --   -6.86606  -1.97423  -1.86592  -1.86572  -1.85578
 Alpha  occ. eigenvalues --   -1.82131  -1.81417  -1.38549  -1.23132  -1.22900
 Alpha  occ. eigenvalues --   -1.22256  -1.13895  -1.13003  -1.11662  -1.09087
 Alpha  occ. eigenvalues --   -1.08433  -1.06201  -1.06100  -1.05671  -1.04733
 Alpha  occ. eigenvalues --   -1.04458  -1.03026  -1.02936  -1.01962  -1.00268
 Alpha virt. eigenvalues --   -0.66155  -0.47936  -0.47732  -0.47330  -0.20765
 Alpha virt. eigenvalues --   -0.15414  -0.15066  -0.14924  -0.09439  -0.09107
 Alpha virt. eigenvalues --   -0.08591   0.33187   0.33467   0.51639   0.52256
 Alpha virt. eigenvalues --    0.53048   0.60287   0.60961   0.61127   0.62623
 Alpha virt. eigenvalues --    0.62924   0.63039   0.63372   0.69649   0.70178
 Alpha virt. eigenvalues --    0.83922   0.84571   0.85505   0.93195   0.93611
 Alpha virt. eigenvalues --    0.95592   0.96174   0.96265   1.10255   1.10848
 Alpha virt. eigenvalues --    1.10905   1.12975   1.23150   1.23151   1.23959
 Alpha virt. eigenvalues --    1.26130   1.26701   1.34964   1.35557   1.36834
 Alpha virt. eigenvalues --    1.40176   1.40289   1.41034   1.41889   1.42543
 Alpha virt. eigenvalues --    1.42565   1.44896   1.45477   1.46296   1.49301
 Alpha virt. eigenvalues --    1.49827   1.50567   1.62398   1.62718   1.63156
 Alpha virt. eigenvalues --    1.78534   1.93564   1.93597   1.94219   1.98709
 Alpha virt. eigenvalues --    2.46059   2.46339
  Beta  occ. eigenvalues --  -89.89535 -25.36841 -25.36840 -25.36840 -25.36832
  Beta  occ. eigenvalues --  -25.35604 -25.35600  -8.90069  -6.86716  -6.86708
  Beta  occ. eigenvalues --   -6.86662  -1.95549  -1.83766  -1.83757  -1.83030
  Beta  occ. eigenvalues --   -1.78903  -1.78434  -1.37251  -1.21472  -1.21289
  Beta  occ. eigenvalues --   -1.21010  -1.09725  -1.08407  -1.08170  -1.07816
  Beta  occ. eigenvalues --   -1.07257  -1.01840  -1.01368  -1.01107  -0.99438
  Beta  occ. eigenvalues --   -0.99272  -0.97945  -0.97581
  Beta virt. eigenvalues --   -0.91189  -0.91189  -0.65205  -0.46900  -0.46830
  Beta virt. eigenvalues --   -0.46604  -0.20510  -0.14636  -0.14581  -0.14468
  Beta virt. eigenvalues --   -0.08365  -0.08322  -0.08188   0.33577   0.33769
  Beta virt. eigenvalues --    0.53835   0.53923   0.54178   0.62641   0.62864
  Beta virt. eigenvalues --    0.63264   0.63472   0.63833   0.64026   0.64230
  Beta virt. eigenvalues --    0.70509   0.70969   0.86415   0.86570   0.86813
  Beta virt. eigenvalues --    0.94568   0.94725   0.97291   0.97353   0.97572
  Beta virt. eigenvalues --    1.11816   1.11894   1.11903   1.14773   1.25030
  Beta virt. eigenvalues --    1.25079   1.25764   1.28108   1.28576   1.36785
  Beta virt. eigenvalues --    1.36896   1.38643   1.42121   1.42165   1.42529
  Beta virt. eigenvalues --    1.43417   1.43446   1.43465   1.46623   1.46900
  Beta virt. eigenvalues --    1.46970   1.50537   1.50882   1.50934   1.63811
  Beta virt. eigenvalues --    1.63818   1.64137   1.79355   1.94581   1.94603
  Beta virt. eigenvalues --    1.95130   2.00005   2.46912   2.47263
          Condensed to atoms (all electrons):
               1          2          3          4          5          6
     1  S   12.790719   0.217491   0.209829   0.217491   0.209829   0.209829
     2  F    0.217491   8.857253  -0.019721   0.000213  -0.019721  -0.019721
     3  F    0.209829  -0.019721   8.844113  -0.019721   0.000218  -0.015414
     4  F    0.217491   0.000213  -0.019721   8.857253  -0.019721  -0.019721
     5  F    0.209829  -0.019721   0.000218  -0.019721   8.844113  -0.013596
     6  F    0.209829  -0.019721  -0.015414  -0.019721  -0.013596   8.844113
     7  F    0.209829  -0.019721  -0.013596  -0.019721  -0.015414   0.000218
               7
     1  S    0.209829
     2  F   -0.019721
     3  F   -0.013596
     4  F   -0.019721
     5  F   -0.015414
     6  F    0.000218
     7  F    8.844113
          Atomic-Atomic Spin Densities.
               1          2          3          4          5          6
     1  S   -0.087219  -0.003820  -0.004724  -0.003820  -0.004725  -0.004724
     2  F   -0.003820   0.346859  -0.003381  -0.000079  -0.003381  -0.003381
     3  F   -0.004724  -0.003381   0.390251  -0.003381  -0.000054  -0.006872
     4  F   -0.003820  -0.000079  -0.003381   0.346859  -0.003381  -0.003381
     5  F   -0.004725  -0.003381  -0.000054  -0.003381   0.390251  -0.008117
     6  F   -0.004724  -0.003381  -0.006872  -0.003381  -0.008117   0.390250
     7  F   -0.004724  -0.003381  -0.008117  -0.003381  -0.006872  -0.000054
               7
     1  S   -0.004724
     2  F   -0.003381
     3  F   -0.008117
     4  F   -0.003381
     5  F   -0.006872
     6  F   -0.000054
     7  F    0.390252
 Mulliken charges and spin densities:
               1          2
     1  S    1.934982  -0.113758
     2  F    0.003925   0.329435
     3  F    0.014292   0.363722
     4  F    0.003925   0.329435
     5  F    0.014292   0.363722
     6  F    0.014291   0.363721
     7  F    0.014292   0.363723
 Sum of Mulliken charges =   2.00000   2.00000
 Mulliken charges and spin densities with hydrogens summed into heavy atoms:
               1          2
     1  S    1.934982  -0.113758
     2  F    0.003925   0.329435
     3  F    0.014292   0.363722
     4  F    0.003925   0.329435
     5  F    0.014292   0.363722
     6  F    0.014291   0.363721
     7  F    0.014292   0.363723
 Electronic spatial extent (au):  <R**2>=            560.0491
 Charge=              2.0000 electrons
 Dipole moment (field-independent basis, Debye):
    X=             -0.0000    Y=              0.0000    Z=             -0.0000  Tot=              0.0000
 Quadrupole moment (field-independent basis, Debye-Ang):
   XX=            -29.5199   YY=            -29.5199   ZZ=            -30.1908
   XY=              0.1742   XZ=             -0.0000   YZ=             -0.0000
 Traceless Quadrupole moment (field-independent basis, Debye-Ang):
   XX=              0.2236   YY=              0.2236   ZZ=             -0.4473
   XY=              0.1742   XZ=             -0.0000   YZ=             -0.0000
 Octapole moment (field-independent basis, Debye-Ang**2):
  XXX=             -0.0000  YYY=              0.0000  ZZZ=             -0.0000  XYY=             -0.0000
  XXY=              0.0000  XXZ=             -0.0000  XZZ=              0.0000  YZZ=             -0.0000
  YYZ=             -0.0000  XYZ=             -0.0000
 Hexadecapole moment (field-independent basis, Debye-Ang**3):
 XXXX=           -128.7350 YYYY=           -128.7350 ZZZZ=           -130.1377 XXXY=              0.0199
 XXXZ=             -0.0000 YYYX=              0.0199 YYYZ=             -0.0000 ZZZX=             -0.0000
 ZZZY=             -0.0000 XXYY=            -50.0111 XXZZ=            -50.9022 YYZZ=            -50.9022
 XXYZ=             -0.0000 YYXZ=             -0.0000 ZZXY=              0.5601
 N-N= 5.532324529864D+02 E-N=-3.436108891132D+03  KE= 9.915081380088D+02
                          Isotropic Fermi Contact Couplings
        Atom                 a.u.       MegaHertz       Gauss      10(-4) cm-1
     1  S(33)             -0.10240     -17.58647      -6.27529      -5.86622
     2  F(19)              0.06125     128.86210      45.98120      42.98377
     3  F(19)              0.06708     141.10696      50.35047      47.06822
     4  F(19)              0.06125     128.86223      45.98125      42.98381
     5  F(19)              0.06708     141.10699      50.35048      47.06823
     6  F(19)              0.06707     141.10662      50.35035      47.06810
     7  F(19)              0.06708     141.10734      50.35061      47.06834
 --------------------------------------------------------
       Center         ----  Spin Dipole Couplings  ----
                      3XX-RR        3YY-RR        3ZZ-RR
 --------------------------------------------------------
     1   Atom       -0.005271     -0.005271      0.010541
     2   Atom        0.545642      0.545639     -1.091281
     3   Atom        1.469571     -1.276490     -0.193081
     4   Atom        0.545640      0.545642     -1.091282
     5   Atom        1.469563     -1.276489     -0.193073
     6   Atom       -1.276487      1.469543     -0.193055
     7   Atom       -1.276492      1.469590     -0.193098
 --------------------------------------------------------
                        XY            XZ            YZ
 --------------------------------------------------------
     1   Atom       -0.008576      0.000000      0.000000
     2   Atom        1.653215     -0.000004     -0.000004
     3   Atom        0.008762     -0.000006     -0.000001
     4   Atom        1.653215      0.000004      0.000004
     5   Atom        0.008753      0.000002      0.000001
     6   Atom        0.008757     -0.000001     -0.000012
     7   Atom        0.008758      0.000001      0.000008
 --------------------------------------------------------


 ---------------------------------------------------------------------------------
              Anisotropic Spin Dipole Couplings in Principal Axis System
 ---------------------------------------------------------------------------------

       Atom             a.u.   MegaHertz   Gauss  10(-4) cm-1        Axes

              Baa    -0.0138    -0.568    -0.203    -0.189  0.7071  0.7071 -0.0000
     1 S(33)  Bbb     0.0033     0.136     0.048     0.045  0.7071 -0.7071  0.0000
              Bcc     0.0105     0.432     0.154     0.144  0.0000  0.0000  1.0000
 
              Baa    -1.1076  -556.252  -198.485  -185.546  0.7071 -0.7071 -0.0000
     2 F(19)  Bbb    -1.0913  -548.069  -195.565  -182.816  0.0000 -0.0000  1.0000
              Bcc     2.1989  1104.321   394.049   368.362  0.7071  0.7071 -0.0000
 
              Baa    -1.2765  -641.100  -228.760  -213.848 -0.0032  1.0000  0.0000
     3 F(19)  Bbb    -0.1931   -96.970   -34.601   -32.346  0.0000 -0.0000  1.0000
              Bcc     1.4696   738.070   263.362   246.194  1.0000  0.0032 -0.0000
 
              Baa    -1.1076  -556.252  -198.485  -185.546  0.7071 -0.7071  0.0000
     4 F(19)  Bbb    -1.0913  -548.070  -195.565  -182.816 -0.0000  0.0000  1.0000
              Bcc     2.1989  1104.322   394.049   368.362  0.7071  0.7071  0.0000
 
              Baa    -1.2765  -641.100  -228.760  -213.848 -0.0032  1.0000 -0.0000
     5 F(19)  Bbb    -0.1931   -96.966   -34.600   -32.345 -0.0000  0.0000  1.0000
              Bcc     1.4696   738.066   263.360   246.192  1.0000  0.0032  0.0000
 
              Baa    -1.2765  -641.099  -228.760  -213.847  1.0000 -0.0032  0.0000
     6 F(19)  Bbb    -0.1931   -96.957   -34.597   -32.341 -0.0000  0.0000  1.0000
              Bcc     1.4696   738.056   263.357   246.189  0.0032  1.0000 -0.0000
 
              Baa    -1.2765  -641.101  -228.761  -213.848  1.0000 -0.0032 -0.0000
     7 F(19)  Bbb    -0.1931   -96.979   -34.604   -32.349  0.0000 -0.0000  1.0000
              Bcc     1.4696   738.080   263.365   246.197  0.0032  1.0000  0.0000
 

 ---------------------------------------------------------------------------------

 1\1\GINC-LOCALHOST\SP\UB3LYP\6-31G(d)\F6S1(2+,3)\ROOT\04-Feb-2021\0\\#
  UB3LYP/6-31g(d) NoSymm 5D\\Single point of SF6^+2 at the UB3LYP/6-31G
 (d) level of theory\\2,3\S,0,0.,0.,0.\F,0,0.,0.,1.600072\F,0,0.,1.6000
 72,0.\F,0,0.,0.,-1.600072\F,0,0.,-1.600072,0.\F,0,1.600072,0.,0.\F,0,-
 1.600072,0.,0.\\Version=ES64L-G09RevE.01\HF=-995.7606987\S2=2.0076\S2-
 1=0.\S2A=2.000036\RMSD=7.656e-09\Dipole=-0.0000022,0.0000003,-0.000000
 3\Quadrupole=0.1662635,0.1662634,-0.3325269,0.1295463,-0.0000002,-0.00
 00002\PG=OH [O(S1),3C4(F1.F1)]\\@


 LORD, MAN... WERE YE BUT WHYLES WHERE I AM, 
 THE GENTILES YE WAD NE'ER ENVY 'EM.        
 IT'S TRUE, THEY NEEDNA STARVE OR SWEAT,     
 THRO' WINTER'S CAULD OR SIMMER'S HEAT...  
 THEY'VE NAE SAIR WARK TO CRAZE THEIR BANES, 
 AND FILL AULD AGE WITH GRIPS AN' GRANES...  
                                             
 BUT HUMAN BODIES ARE SIC FOOLS              
 FOR A' THEIR COLLEGES AND SCHOOLS,           
 THAT WHEN NAE REAL ILLS PERPLEX THEM,       
 THEY MAK ENOW THEMSELVES TO VEX THEM,       
 AN' AYE THE LESS THEY HAE TO STURT THEM,    
 IN LIKE PROPORTION LESS WILL HURT THEM....  
                                             
                (ROBERT BURNS 'THE TWA DOGS')
 Job cpu time:       0 days  0 hours  1 minutes 29.0 seconds.
 File lengths (MBytes):  RWF=      9 Int=      0 D2E=      0 Chk=      3 Scr=      1
 Normal termination of Gaussian 09 at Thu Feb  4 14:36:24 2021.
