 Entering Gaussian System, Link 0=/opt/g09E01ES64L/g09/g09
 Initial command:
 /opt/g09E01ES64L/g09/l1.exe "/home/scratch/Gau-13503.inp" -scrdir="/home/scratch/"
 Entering Link 1 = /opt/g09E01ES64L/g09/l1.exe PID=     13504.
  
 Copyright (c) 1988,1990,1992,1993,1995,1998,2003,2009,2015,
            Gaussian, Inc.  All Rights Reserved.
  
 This is part of the Gaussian(R) 09 program.  It is based on
 the Gaussian(R) 03 system (copyright 2003, Gaussian, Inc.),
 the Gaussian(R) 98 system (copyright 1998, Gaussian, Inc.),
 the Gaussian(R) 94 system (copyright 1995, Gaussian, Inc.),
 the Gaussian 92(TM) system (copyright 1992, Gaussian, Inc.),
 the Gaussian 90(TM) system (copyright 1990, Gaussian, Inc.),
 the Gaussian 88(TM) system (copyright 1988, Gaussian, Inc.),
 the Gaussian 86(TM) system (copyright 1986, Carnegie Mellon
 University), and the Gaussian 82(TM) system (copyright 1983,
 Carnegie Mellon University). Gaussian is a federally registered
 trademark of Gaussian, Inc.
  
 This software contains proprietary and confidential information,
 including trade secrets, belonging to Gaussian, Inc.
  
 This software is provided under written license and may be
 used, copied, transmitted, or stored only in accord with that
 written license.
  
 The following legend is applicable only to US Government
 contracts under FAR:
  
                    RESTRICTED RIGHTS LEGEND
  
 Use, reproduction and disclosure by the US Government is
 subject to restrictions as set forth in subparagraphs (a)
 and (c) of the Commercial Computer Software - Restricted
 Rights clause in FAR 52.227-19.
  
 Gaussian, Inc.
 340 Quinnipiac St., Bldg. 40, Wallingford CT 06492
  
  
 ---------------------------------------------------------------
 Warning -- This program may not be used in any manner that
 competes with the business of Gaussian, Inc. or will provide
 assistance to any competitor of Gaussian, Inc.  The licensee
 of this program is prohibited from giving any competitor of
 Gaussian, Inc. access to this program.  By using this program,
 the user acknowledges that Gaussian, Inc. is engaged in the
 business of creating and licensing software in the field of
 computational chemistry and represents and warrants to the
 licensee that it is not a competitor of Gaussian, Inc. and that
 it will not use this program in any manner prohibited above.
 ---------------------------------------------------------------
  

 Cite this work as:
 Gaussian 09, Revision E.01,
 M. J. Frisch, G. W. Trucks, H. B. Schlegel, G. E. Scuseria, 
 M. A. Robb, J. R. Cheeseman, G. Scalmani, V. Barone, B. Mennucci, 
 G. A. Petersson, H. Nakatsuji, M. Caricato, X. Li, H. P. Hratchian, 
 A. F. Izmaylov, J. Bloino, G. Zheng, J. L. Sonnenberg, M. Hada, 
 M. Ehara, K. Toyota, R. Fukuda, J. Hasegawa, M. Ishida, T. Nakajima, 
 Y. Honda, O. Kitao, H. Nakai, T. Vreven, J. A. Montgomery, Jr., 
 J. E. Peralta, F. Ogliaro, M. Bearpark, J. J. Heyd, E. Brothers, 
 K. N. Kudin, V. N. Staroverov, T. Keith, R. Kobayashi, J. Normand, 
 K. Raghavachari, A. Rendell, J. C. Burant, S. S. Iyengar, J. Tomasi, 
 M. Cossi, N. Rega, J. M. Millam, M. Klene, J. E. Knox, J. B. Cross, 
 V. Bakken, C. Adamo, J. Jaramillo, R. Gomperts, R. E. Stratmann, 
 O. Yazyev, A. J. Austin, R. Cammi, C. Pomelli, J. W. Ochterski, 
 R. L. Martin, K. Morokuma, V. G. Zakrzewski, G. A. Voth, 
 P. Salvador, J. J. Dannenberg, S. Dapprich, A. D. Daniels, 
 O. Farkas, J. B. Foresman, J. V. Ortiz, J. Cioslowski, 
 and D. J. Fox, Gaussian, Inc., Wallingford CT, 2013.
 
 ******************************************
 Gaussian 09:  ES64L-G09RevE.01 30-Nov-2015
                 3-Feb-2021 
 ******************************************
 %chk=SF6dft_N+1.chk
 %mem=20GB
 %nprocshared=16
 Will use up to   16 processors via shared memory.
 ---------------------------
 # UB3LYP/6-31g(d) NoSymm 5D
 ---------------------------
 1/38=1/1;
 2/12=2,15=1,17=6,18=5,40=1/2;
 3/5=1,6=6,7=1,8=1,11=2,16=1,25=1,30=1,74=-5,116=2/1,2,3;
 4//1;
 5/5=2,38=5/2;
 6/7=2,8=2,9=2,10=2,28=1/1;
 99/5=1,9=1/99;
 -------------------------------------------------------------
 Single point of SF6^-1 at the UB3LYP/6-31G(d) level of theory
 -------------------------------------------------------------
 Symbolic Z-matrix:
 Charge = -1 Multiplicity = 2
 S                     0.        0.        0. 
 F                     0.        0.        1.60007 
 F                     0.        1.60007   0. 
 F                     0.        0.       -1.60007 
 F                     0.       -1.60007   0. 
 F                     1.60007   0.        0. 
 F                    -1.60007   0.        0. 
 
                          Input orientation:                          
 ---------------------------------------------------------------------
 Center     Atomic      Atomic             Coordinates (Angstroms)
 Number     Number       Type             X           Y           Z
 ---------------------------------------------------------------------
      1         16           0        0.000000    0.000000    0.000000
      2          9           0        0.000000    0.000000    1.600072
      3          9           0        0.000000    1.600072    0.000000
      4          9           0        0.000000    0.000000   -1.600072
      5          9           0        0.000000   -1.600072    0.000000
      6          9           0        1.600072    0.000000    0.000000
      7          9           0       -1.600072    0.000000    0.000000
 ---------------------------------------------------------------------
                    Distance matrix (angstroms):
                    1          2          3          4          5
     1  S    0.000000
     2  F    1.600072   0.000000
     3  F    1.600072   2.262844   0.000000
     4  F    1.600072   3.200144   2.262844   0.000000
     5  F    1.600072   2.262844   3.200144   2.262844   0.000000
     6  F    1.600072   2.262844   2.262844   2.262844   2.262844
     7  F    1.600072   2.262844   2.262844   2.262844   2.262844
                    6          7
     6  F    0.000000
     7  F    3.200144   0.000000
 Symmetry turned off by external request.
 Stoichiometry    F6S(1-,2)
 Framework group  OH[O(S),3C4(F.F)]
 Deg. of freedom     1
 Full point group                 OH      NOp  48
 Rotational constants (GHZ):      2.5975329      2.5975329      2.5975329
 Standard basis: 6-31G(d) (5D, 7F)
   102 basis functions,   220 primitive gaussians,   109 cartesian basis functions
    36 alpha electrons       35 beta electrons
       nuclear repulsion energy       553.2324529864 Hartrees.
 NAtoms=    7 NActive=    7 NUniq=    7 SFac= 1.00D+00 NAtFMM=   60 NAOKFM=F Big=F
 Integral buffers will be    131072 words long.
 Raffenetti 2 integral format.
 Two-electron integral symmetry is turned off.
 One-electron integrals computed using PRISM.
 NBasis=   102 RedAO= T EigKep=  1.70D-02  NBF=   102
 NBsUse=   102 1.00D-06 EigRej= -1.00D+00 NBFU=   102
 ExpMin= 1.17D-01 ExpMax= 2.19D+04 ExpMxC= 3.30D+03 IAcc=1 IRadAn=         1 AccDes= 0.00D+00
 Harris functional with IExCor=  402 and IRadAn=       1 diagonalized for initial guess.
 HarFok:  IExCor=  402 AccDes= 0.00D+00 IRadAn=         1 IDoV= 1 UseB2=F ITyADJ=14
 ICtDFT=  3500011 ScaDFX=  1.000000  1.000000  1.000000  1.000000
 FoFCou: FMM=F IPFlag=           0 FMFlag=      100000 FMFlg1=           0
         NFxFlg=           0 DoJE=T BraDBF=F KetDBF=T FulRan=T
         wScrn=  0.000000 ICntrl=     500 IOpCl=  0 I1Cent=   200000004 NGrid=           0
         NMat0=    1 NMatS0=      1 NMatT0=    0 NMatD0=    1 NMtDS0=    0 NMtDT0=    0
 Symmetry not used in FoFCou.
 Initial guess <Sx>= 0.0000 <Sy>= 0.0000 <Sz>= 0.5000 <S**2>= 0.7500 S= 0.5000
 Keep R1 and R2 ints in memory in canonical form, NReq=28587011.
 Requested convergence on RMS density matrix=1.00D-08 within 128 cycles.
 Requested convergence on MAX density matrix=1.00D-06.
 Requested convergence on             energy=1.00D-06.
 No special actions if energy rises.
 Integral accuracy reduced to 1.0D-05 until final iterations.
 DSYEVD-2 returned Info=         154 IAlg= 4 N=   102 NDim=   102 NE2=    26045943 trying  DSYEV.
 Initial convergence to 1.0D-05 achieved.  Increase integral accuracy.
 SCF Done:  E(UB3LYP) =  -997.078677697     A.U. after   12 cycles
            NFock= 12  Conv=0.36D-08     -V/T= 2.0021
 <Sx>= 0.0000 <Sy>= 0.0000 <Sz>= 0.5000 <S**2>= 0.7511 S= 0.5005
 <L.S>= 0.000000000000E+00
 Annihilation of the first spin contaminant:
 S**2 before annihilation     0.7511,   after     0.7500

 **********************************************************************

            Population analysis using the SCF density.

 **********************************************************************

 Alpha  occ. eigenvalues --  -88.94178 -24.46084 -24.46079 -24.46079 -24.46079
 Alpha  occ. eigenvalues --  -24.46071 -24.46071  -7.96690  -5.92864  -5.92864
 Alpha  occ. eigenvalues --   -5.92864  -1.09796  -0.98946  -0.98946  -0.98946
 Alpha  occ. eigenvalues --   -0.94633  -0.94633  -0.54257  -0.38220  -0.38220
 Alpha  occ. eigenvalues --   -0.38220  -0.26957  -0.26957  -0.26957  -0.25073
 Alpha  occ. eigenvalues --   -0.25073  -0.19453  -0.19453  -0.19453  -0.18698
 Alpha  occ. eigenvalues --   -0.18698  -0.18698  -0.14900  -0.14900  -0.14900
 Alpha  occ. eigenvalues --    0.13003
 Alpha virt. eigenvalues --    0.37952   0.37952   0.37952   0.52334   0.57066
 Alpha virt. eigenvalues --    0.57066   0.57066   0.78537   0.78537   0.78537
 Alpha virt. eigenvalues --    1.20285   1.20285   1.31934   1.31934   1.31934
 Alpha virt. eigenvalues --    1.38107   1.38107   1.38107   1.38306   1.41328
 Alpha virt. eigenvalues --    1.41328   1.41328   1.44461   1.44461   1.61954
 Alpha virt. eigenvalues --    1.61954   1.61954   1.72969   1.72969   1.72969
 Alpha virt. eigenvalues --    1.74823   1.74823   1.90750   1.90750   1.90750
 Alpha virt. eigenvalues --    1.94351   2.04838   2.04838   2.04838   2.07785
 Alpha virt. eigenvalues --    2.07785   2.16574   2.16574   2.18102   2.22836
 Alpha virt. eigenvalues --    2.22836   2.22836   2.24609   2.24609   2.24609
 Alpha virt. eigenvalues --    2.29161   2.29161   2.29161   2.31576   2.31576
 Alpha virt. eigenvalues --    2.31576   2.40698   2.40698   2.40698   2.59619
 Alpha virt. eigenvalues --    2.78705   2.78809   2.78809   2.78809   3.30514
 Alpha virt. eigenvalues --    3.30514
  Beta  occ. eigenvalues --  -88.93465 -24.45592 -24.45588 -24.45588 -24.45588
  Beta  occ. eigenvalues --  -24.45580 -24.45580  -7.95639  -5.92151  -5.92151
  Beta  occ. eigenvalues --   -5.92151  -1.08358  -0.97767  -0.97767  -0.97767
  Beta  occ. eigenvalues --   -0.93486  -0.93486  -0.52137  -0.36727  -0.36727
  Beta  occ. eigenvalues --   -0.36727  -0.26534  -0.26534  -0.26534  -0.22864
  Beta  occ. eigenvalues --   -0.22864  -0.18595  -0.18595  -0.18595  -0.18264
  Beta  occ. eigenvalues --   -0.18264  -0.18264  -0.14440  -0.14440  -0.14440
  Beta virt. eigenvalues --    0.22852   0.41019   0.41019   0.41019   0.52598
  Beta virt. eigenvalues --    0.57720   0.57720   0.57720   0.80007   0.80007
  Beta virt. eigenvalues --    0.80007   1.22016   1.22016   1.32521   1.32521
  Beta virt. eigenvalues --    1.32521   1.38959   1.38959   1.38959   1.39619
  Beta virt. eigenvalues --    1.41569   1.41569   1.41569   1.45575   1.45575
  Beta virt. eigenvalues --    1.62316   1.62316   1.62316   1.73561   1.73561
  Beta virt. eigenvalues --    1.73561   1.75268   1.75268   1.91070   1.91070
  Beta virt. eigenvalues --    1.91070   1.94417   2.04907   2.04907   2.04907
  Beta virt. eigenvalues --    2.07853   2.07853   2.17157   2.17157   2.18180
  Beta virt. eigenvalues --    2.22970   2.22970   2.22970   2.25321   2.25321
  Beta virt. eigenvalues --    2.25321   2.29412   2.29412   2.29412   2.32694
  Beta virt. eigenvalues --    2.32694   2.32694   2.41016   2.41016   2.41016
  Beta virt. eigenvalues --    2.60497   2.79580   2.79828   2.79828   2.79828
  Beta virt. eigenvalues --    3.31612   3.31612
          Condensed to atoms (all electrons):
               1          2          3          4          5          6
     1  S   14.164655   0.046793   0.046793   0.046793   0.046793   0.046793
     2  F    0.046793   9.431008  -0.013334   0.001301  -0.013334  -0.013334
     3  F    0.046793  -0.013334   9.431008  -0.013334   0.001301  -0.013334
     4  F    0.046793   0.001301  -0.013334   9.431008  -0.013334  -0.013334
     5  F    0.046793  -0.013334   0.001301  -0.013334   9.431008  -0.013334
     6  F    0.046793  -0.013334  -0.013334  -0.013334  -0.013334   9.431008
     7  F    0.046793  -0.013334  -0.013334  -0.013334  -0.013334   0.001301
               7
     1  S    0.046793
     2  F   -0.013334
     3  F   -0.013334
     4  F   -0.013334
     5  F   -0.013334
     6  F    0.001301
     7  F    9.431008
          Atomic-Atomic Spin Densities.
               1          2          3          4          5          6
     1  S    1.830067  -0.223840  -0.223840  -0.223840  -0.223840  -0.223840
     2  F   -0.223840   0.239728   0.017027   0.001500   0.017027   0.017027
     3  F   -0.223840   0.017027   0.239728   0.017027   0.001500   0.017027
     4  F   -0.223840   0.001500   0.017027   0.239728   0.017027   0.017027
     5  F   -0.223840   0.017027   0.001500   0.017027   0.239728   0.017027
     6  F   -0.223840   0.017027   0.017027   0.017027   0.017027   0.239728
     7  F   -0.223840   0.017027   0.017027   0.017027   0.017027   0.001500
               7
     1  S   -0.223840
     2  F    0.017027
     3  F    0.017027
     4  F    0.017027
     5  F    0.017027
     6  F    0.001500
     7  F    0.239728
 Mulliken charges and spin densities:
               1          2
     1  S    1.554585   0.487028
     2  F   -0.425764   0.085495
     3  F   -0.425764   0.085495
     4  F   -0.425764   0.085495
     5  F   -0.425764   0.085495
     6  F   -0.425764   0.085495
     7  F   -0.425764   0.085495
 Sum of Mulliken charges =  -1.00000   1.00000
 Mulliken charges and spin densities with hydrogens summed into heavy atoms:
               1          2
     1  S    1.554585   0.487028
     2  F   -0.425764   0.085495
     3  F   -0.425764   0.085495
     4  F   -0.425764   0.085495
     5  F   -0.425764   0.085495
     6  F   -0.425764   0.085495
     7  F   -0.425764   0.085495
 Electronic spatial extent (au):  <R**2>=            600.6940
 Charge=             -1.0000 electrons
 Dipole moment (field-independent basis, Debye):
    X=              0.0000    Y=              0.0000    Z=              0.0000  Tot=              0.0000
 Quadrupole moment (field-independent basis, Debye-Ang):
   XX=            -47.9664   YY=            -47.9664   ZZ=            -47.9664
   XY=             -0.0000   XZ=              0.0000   YZ=             -0.0000
 Traceless Quadrupole moment (field-independent basis, Debye-Ang):
   XX=             -0.0000   YY=             -0.0000   ZZ=              0.0000
   XY=             -0.0000   XZ=              0.0000   YZ=             -0.0000
 Octapole moment (field-independent basis, Debye-Ang**2):
  XXX=              0.0000  YYY=              0.0000  ZZZ=              0.0000  XYY=             -0.0000
  XXY=             -0.0000  XXZ=             -0.0000  XZZ=             -0.0000  YZZ=             -0.0000
  YYZ=              0.0000  XYZ=              0.0000
 Hexadecapole moment (field-independent basis, Debye-Ang**3):
 XXXX=           -195.4584 YYYY=           -195.4584 ZZZZ=           -195.4584 XXXY=             -0.0000
 XXXZ=              0.0000 YYYX=             -0.0000 YYYZ=             -0.0000 ZZZX=              0.0000
 ZZZY=              0.0000 XXYY=            -59.5271 XXZZ=            -59.5271 YYZZ=            -59.5271
 XXYZ=             -0.0000 YYXZ=              0.0000 ZZXY=              0.0000
 N-N= 5.532324529864D+02 E-N=-3.500522841040D+03  KE= 9.949732789884D+02
                          Isotropic Fermi Contact Couplings
        Atom                 a.u.       MegaHertz       Gauss      10(-4) cm-1
     1  S(33)              6.30412    2165.29489     772.63103     722.26463
     2  F(19)              0.22104     930.01894     331.85387     310.22093
     3  F(19)              0.22104     930.01894     331.85387     310.22093
     4  F(19)              0.22104     930.01894     331.85387     310.22093
     5  F(19)              0.22104     930.01894     331.85387     310.22093
     6  F(19)              0.22104     930.01894     331.85387     310.22093
     7  F(19)              0.22104     930.01894     331.85387     310.22093
 --------------------------------------------------------
       Center         ----  Spin Dipole Couplings  ----
                      3XX-RR        3YY-RR        3ZZ-RR
 --------------------------------------------------------
     1   Atom       -0.000000      0.000000      0.000000
     2   Atom       -0.411970     -0.411970      0.823941
     3   Atom       -0.411970      0.823941     -0.411970
     4   Atom       -0.411970     -0.411970      0.823941
     5   Atom       -0.411970      0.823941     -0.411970
     6   Atom        0.823941     -0.411970     -0.411970
     7   Atom        0.823941     -0.411970     -0.411970
 --------------------------------------------------------
                        XY            XZ            YZ
 --------------------------------------------------------
     1   Atom       -0.000000     -0.000000     -0.000000
     2   Atom       -0.000000      0.000000     -0.000000
     3   Atom        0.000000     -0.000000      0.000000
     4   Atom       -0.000000     -0.000000      0.000000
     5   Atom       -0.000000      0.000000     -0.000000
     6   Atom       -0.000000      0.000000     -0.000000
     7   Atom       -0.000000     -0.000000     -0.000000
 --------------------------------------------------------


 ---------------------------------------------------------------------------------
              Anisotropic Spin Dipole Couplings in Principal Axis System
 ---------------------------------------------------------------------------------

       Atom             a.u.   MegaHertz   Gauss  10(-4) cm-1        Axes

              Baa    -0.0000    -0.000    -0.000    -0.000  0.7930  0.4499  0.4109
     1 S(33)  Bbb     0.0000     0.000     0.000     0.000 -0.4943  0.0807  0.8655
              Bcc     0.0000     0.000     0.000     0.000 -0.3562  0.8894 -0.2864
 
              Baa    -0.4120  -206.902   -73.828   -69.015  0.9872  0.1597 -0.0000
     2 F(19)  Bbb    -0.4120  -206.902   -73.828   -69.015 -0.1597  0.9872  0.0000
              Bcc     0.8239   413.804   147.656   138.030  0.0000 -0.0000  1.0000
 
              Baa    -0.4120  -206.902   -73.828   -69.015  0.9630 -0.0000  0.2696
     3 F(19)  Bbb    -0.4120  -206.902   -73.828   -69.015 -0.2696 -0.0000  0.9630
              Bcc     0.8239   413.804   147.656   138.030  0.0000  1.0000  0.0000
 
              Baa    -0.4120  -206.902   -73.828   -69.015  0.4883  0.8727  0.0000
     4 F(19)  Bbb    -0.4120  -206.902   -73.828   -69.015  0.8727 -0.4883  0.0000
              Bcc     0.8239   413.804   147.656   138.030 -0.0000  0.0000  1.0000
 
              Baa    -0.4120  -206.902   -73.828   -69.015 -0.0138  0.0000  0.9999
     5 F(19)  Bbb    -0.4120  -206.902   -73.828   -69.015  0.9999  0.0000  0.0138
              Bcc     0.8239   413.804   147.656   138.030 -0.0000  1.0000 -0.0000
 
              Baa    -0.4120  -206.902   -73.828   -69.015 -0.0000  0.3250  0.9457
     6 F(19)  Bbb    -0.4120  -206.902   -73.828   -69.015  0.0000  0.9457 -0.3250
              Bcc     0.8239   413.804   147.656   138.030  1.0000 -0.0000  0.0000
 
              Baa    -0.4120  -206.902   -73.828   -69.015  0.0000  0.0014  1.0000
     7 F(19)  Bbb    -0.4120  -206.902   -73.828   -69.015  0.0000  1.0000 -0.0014
              Bcc     0.8239   413.804   147.656   138.030  1.0000 -0.0000 -0.0000
 

 ---------------------------------------------------------------------------------

 1\1\GINC-LOCALHOST\SP\UB3LYP\6-31G(d)\F6S1(1-,2)\ROOT\03-Feb-2021\0\\#
  UB3LYP/6-31g(d) NoSymm 5D\\Single point of SF6^-1 at the UB3LYP/6-31G
 (d) level of theory\\-1,2\S,0,0.,0.,0.\F,0,0.,0.,1.600072\F,0,0.,1.600
 072,0.\F,0,0.,0.,-1.600072\F,0,0.,-1.600072,0.\F,0,1.600072,0.,0.\F,0,
 -1.600072,0.,0.\\Version=ES64L-G09RevE.01\HF=-997.0786777\S2=0.751078\
 S2-1=0.\S2A=0.750001\RMSD=3.598e-09\Dipole=0.,0.,0.\Quadrupole=0.,0.,0
 .,0.,0.,0.\PG=OH [O(S1),3C4(F1.F1)]\\@


 REVOLUTIONS HAVE NEVER LIGHTENED THE BURDEN OF TYRANNY:
 THEY HAVE MERELY SHIFTED IT TO OTHER SHOULDERS.
                                   -- G. B. SHAW (1903)
 Job cpu time:       0 days  0 hours  0 minutes 33.8 seconds.
 File lengths (MBytes):  RWF=      9 Int=      0 D2E=      0 Chk=      2 Scr=      1
 Normal termination of Gaussian 09 at Wed Feb  3 22:43:25 2021.
