 Entering Gaussian System, Link 0=/opt/g09E01ES64L/g09/g09
 Initial command:
 /opt/g09E01ES64L/g09/l1.exe "/home/scratch/Gau-24289.inp" -scrdir="/home/scratch/"
 Entering Link 1 = /opt/g09E01ES64L/g09/l1.exe PID=     24290.
  
 Copyright (c) 1988,1990,1992,1993,1995,1998,2003,2009,2015,
            Gaussian, Inc.  All Rights Reserved.
  
 This is part of the Gaussian(R) 09 program.  It is based on
 the Gaussian(R) 03 system (copyright 2003, Gaussian, Inc.),
 the Gaussian(R) 98 system (copyright 1998, Gaussian, Inc.),
 the Gaussian(R) 94 system (copyright 1995, Gaussian, Inc.),
 the Gaussian 92(TM) system (copyright 1992, Gaussian, Inc.),
 the Gaussian 90(TM) system (copyright 1990, Gaussian, Inc.),
 the Gaussian 88(TM) system (copyright 1988, Gaussian, Inc.),
 the Gaussian 86(TM) system (copyright 1986, Carnegie Mellon
 University), and the Gaussian 82(TM) system (copyright 1983,
 Carnegie Mellon University). Gaussian is a federally registered
 trademark of Gaussian, Inc.
  
 This software contains proprietary and confidential information,
 including trade secrets, belonging to Gaussian, Inc.
  
 This software is provided under written license and may be
 used, copied, transmitted, or stored only in accord with that
 written license.
  
 The following legend is applicable only to US Government
 contracts under FAR:
  
                    RESTRICTED RIGHTS LEGEND
  
 Use, reproduction and disclosure by the US Government is
 subject to restrictions as set forth in subparagraphs (a)
 and (c) of the Commercial Computer Software - Restricted
 Rights clause in FAR 52.227-19.
  
 Gaussian, Inc.
 340 Quinnipiac St., Bldg. 40, Wallingford CT 06492
  
  
 ---------------------------------------------------------------
 Warning -- This program may not be used in any manner that
 competes with the business of Gaussian, Inc. or will provide
 assistance to any competitor of Gaussian, Inc.  The licensee
 of this program is prohibited from giving any competitor of
 Gaussian, Inc. access to this program.  By using this program,
 the user acknowledges that Gaussian, Inc. is engaged in the
 business of creating and licensing software in the field of
 computational chemistry and represents and warrants to the
 licensee that it is not a competitor of Gaussian, Inc. and that
 it will not use this program in any manner prohibited above.
 ---------------------------------------------------------------
  

 Cite this work as:
 Gaussian 09, Revision E.01,
 M. J. Frisch, G. W. Trucks, H. B. Schlegel, G. E. Scuseria, 
 M. A. Robb, J. R. Cheeseman, G. Scalmani, V. Barone, B. Mennucci, 
 G. A. Petersson, H. Nakatsuji, M. Caricato, X. Li, H. P. Hratchian, 
 A. F. Izmaylov, J. Bloino, G. Zheng, J. L. Sonnenberg, M. Hada, 
 M. Ehara, K. Toyota, R. Fukuda, J. Hasegawa, M. Ishida, T. Nakajima, 
 Y. Honda, O. Kitao, H. Nakai, T. Vreven, J. A. Montgomery, Jr., 
 J. E. Peralta, F. Ogliaro, M. Bearpark, J. J. Heyd, E. Brothers, 
 K. N. Kudin, V. N. Staroverov, T. Keith, R. Kobayashi, J. Normand, 
 K. Raghavachari, A. Rendell, J. C. Burant, S. S. Iyengar, J. Tomasi, 
 M. Cossi, N. Rega, J. M. Millam, M. Klene, J. E. Knox, J. B. Cross, 
 V. Bakken, C. Adamo, J. Jaramillo, R. Gomperts, R. E. Stratmann, 
 O. Yazyev, A. J. Austin, R. Cammi, C. Pomelli, J. W. Ochterski, 
 R. L. Martin, K. Morokuma, V. G. Zakrzewski, G. A. Voth, 
 P. Salvador, J. J. Dannenberg, S. Dapprich, A. D. Daniels, 
 O. Farkas, J. B. Foresman, J. V. Ortiz, J. Cioslowski, 
 and D. J. Fox, Gaussian, Inc., Wallingford CT, 2013.
 
 ******************************************
 Gaussian 09:  ES64L-G09RevE.01 30-Nov-2015
                 4-Feb-2021 
 ******************************************
 %chk=SF6_N-1.chk
 %mem=20GB
 %nprocshared=16
 Will use up to   16 processors via shared memory.
 ---------------------------
 # UB3LYP/6-31g(d) NoSymm 5D
 ---------------------------
 1/38=1/1;
 2/12=2,15=1,17=6,18=5,40=1/2;
 3/5=1,6=6,7=1,8=1,11=2,16=1,25=1,30=1,74=-5,116=2/1,2,3;
 4//1;
 5/5=2,38=5/2;
 6/7=2,8=2,9=2,10=2,28=1/1;
 99/5=1,9=1/99;
 -------------------------------------------------------------
 Single point of SF6^+1 at the UB3LYP/6-31G(d) level of theory
 -------------------------------------------------------------
 Symbolic Z-matrix:
 Charge =  1 Multiplicity = 2
 S                     0.        0.        0. 
 F                     0.        0.        1.60007 
 F                     0.        1.60007   0. 
 F                     0.        0.       -1.60007 
 F                     0.       -1.60007   0. 
 F                     1.60007   0.        0. 
 F                    -1.60007   0.        0. 
 
                          Input orientation:                          
 ---------------------------------------------------------------------
 Center     Atomic      Atomic             Coordinates (Angstroms)
 Number     Number       Type             X           Y           Z
 ---------------------------------------------------------------------
      1         16           0        0.000000    0.000000    0.000000
      2          9           0        0.000000    0.000000    1.600072
      3          9           0        0.000000    1.600072    0.000000
      4          9           0        0.000000    0.000000   -1.600072
      5          9           0        0.000000   -1.600072    0.000000
      6          9           0        1.600072    0.000000    0.000000
      7          9           0       -1.600072    0.000000    0.000000
 ---------------------------------------------------------------------
                    Distance matrix (angstroms):
                    1          2          3          4          5
     1  S    0.000000
     2  F    1.600072   0.000000
     3  F    1.600072   2.262844   0.000000
     4  F    1.600072   3.200144   2.262844   0.000000
     5  F    1.600072   2.262844   3.200144   2.262844   0.000000
     6  F    1.600072   2.262844   2.262844   2.262844   2.262844
     7  F    1.600072   2.262844   2.262844   2.262844   2.262844
                    6          7
     6  F    0.000000
     7  F    3.200144   0.000000
 Symmetry turned off by external request.
 Stoichiometry    F6S(1+,2)
 Framework group  OH[O(S),3C4(F.F)]
 Deg. of freedom     1
 Full point group                 OH      NOp  48
 Rotational constants (GHZ):      2.5975329      2.5975329      2.5975329
 Standard basis: 6-31G(d) (5D, 7F)
   102 basis functions,   220 primitive gaussians,   109 cartesian basis functions
    35 alpha electrons       34 beta electrons
       nuclear repulsion energy       553.2324529864 Hartrees.
 NAtoms=    7 NActive=    7 NUniq=    7 SFac= 1.00D+00 NAtFMM=   60 NAOKFM=F Big=F
 Integral buffers will be    131072 words long.
 Raffenetti 2 integral format.
 Two-electron integral symmetry is turned off.
 One-electron integrals computed using PRISM.
 NBasis=   102 RedAO= T EigKep=  1.70D-02  NBF=   102
 NBsUse=   102 1.00D-06 EigRej= -1.00D+00 NBFU=   102
 ExpMin= 1.17D-01 ExpMax= 2.19D+04 ExpMxC= 3.30D+03 IAcc=1 IRadAn=         1 AccDes= 0.00D+00
 Harris functional with IExCor=  402 and IRadAn=       1 diagonalized for initial guess.
 HarFok:  IExCor=  402 AccDes= 0.00D+00 IRadAn=         1 IDoV= 1 UseB2=F ITyADJ=14
 ICtDFT=  3500011 ScaDFX=  1.000000  1.000000  1.000000  1.000000
 FoFCou: FMM=F IPFlag=           0 FMFlag=      100000 FMFlg1=           0
         NFxFlg=           0 DoJE=T BraDBF=F KetDBF=T FulRan=T
         wScrn=  0.000000 ICntrl=     500 IOpCl=  0 I1Cent=   200000004 NGrid=           0
         NMat0=    1 NMatS0=      1 NMatT0=    0 NMatD0=    1 NMtDS0=    0 NMtDT0=    0
 Symmetry not used in FoFCou.
 Initial guess <Sx>= 0.0000 <Sy>= 0.0000 <Sz>= 0.5000 <S**2>= 0.7500 S= 0.5000
 Keep R1 and R2 ints in memory in canonical form, NReq=28587011.
 Requested convergence on RMS density matrix=1.00D-08 within 128 cycles.
 Requested convergence on MAX density matrix=1.00D-06.
 Requested convergence on             energy=1.00D-06.
 No special actions if energy rises.
 Integral accuracy reduced to 1.0D-05 until final iterations.
 Rare condition: small coef for last iteration:  0.000D+00
 Rare condition: small coef for last iteration:  0.000D+00
 Rare condition: small coef for last iteration:  0.000D+00
 Rare condition: small coef for last iteration:  0.000D+00
 Problem detected with inexpensive integrals.
 Switching to full accuracy and repeating last cycle.
 SCF Done:  E(UB3LYP) =  -996.565971911     A.U. after   37 cycles
            NFock= 37  Conv=0.98D-08     -V/T= 2.0044
 <Sx>= 0.0000 <Sy>= 0.0000 <Sz>= 0.5000 <S**2>= 0.7528 S= 0.5014
 <L.S>= 0.000000000000E+00
 Annihilation of the first spin contaminant:
 S**2 before annihilation     0.7528,   after     0.7500

 **********************************************************************

            Population analysis using the SCF density.

 **********************************************************************

 Alpha  occ. eigenvalues --  -89.61348 -25.08773 -25.08769 -25.05597 -25.05597
 Alpha  occ. eigenvalues --  -25.05597 -25.05589  -8.61714  -6.58427  -6.58310
 Alpha  occ. eigenvalues --   -6.58308  -1.68132  -1.58431  -1.55833  -1.55815
 Alpha  occ. eigenvalues --   -1.53003  -1.51222  -1.10213  -0.95424  -0.93948
 Alpha  occ. eigenvalues --   -0.93714  -0.85182  -0.83904  -0.82116  -0.81119
 Alpha  occ. eigenvalues --   -0.79459  -0.78380  -0.76276  -0.75804  -0.75332
 Alpha  occ. eigenvalues --   -0.74085  -0.74070  -0.73372  -0.72322  -0.70346
 Alpha virt. eigenvalues --   -0.37299  -0.19681  -0.18637  -0.18482   0.03756
 Alpha virt. eigenvalues --    0.08608   0.09035   0.09301   0.19215   0.19605
 Alpha virt. eigenvalues --    0.20349   0.61500   0.62239   0.78179   0.78834
 Alpha virt. eigenvalues --    0.80085   0.87146   0.87336   0.88026   0.88057
 Alpha virt. eigenvalues --    0.88118   0.89047   0.89057   0.94373   0.95544
 Alpha virt. eigenvalues --    1.09857   1.10550   1.11885   1.20673   1.21010
 Alpha virt. eigenvalues --    1.21756   1.21815   1.22237   1.37368   1.37386
 Alpha virt. eigenvalues --    1.37815   1.40404   1.49494   1.51679   1.51682
 Alpha virt. eigenvalues --    1.53268   1.54691   1.62352   1.62665   1.64785
 Alpha virt. eigenvalues --    1.67396   1.68236   1.68684   1.69613   1.70397
 Alpha virt. eigenvalues --    1.70509   1.72480   1.73297   1.74633   1.76656
 Alpha virt. eigenvalues --    1.77018   1.78075   1.88171   1.89185   1.89431
 Alpha virt. eigenvalues --    2.05760   2.20779   2.22417   2.22439   2.25392
 Alpha virt. eigenvalues --    2.73702   2.74623
  Beta  occ. eigenvalues --  -89.61369 -25.07909 -25.07905 -25.05132 -25.05132
  Beta  occ. eigenvalues --  -25.05132 -25.05124  -8.61738  -6.58464  -6.58337
  Beta  occ. eigenvalues --   -6.58332  -1.67159  -1.56476  -1.54774  -1.54765
  Beta  occ. eigenvalues --   -1.51156  -1.50028  -1.09576  -0.94410  -0.93310
  Beta  occ. eigenvalues --   -0.93126  -0.82373  -0.81730  -0.81024  -0.80373
  Beta  occ. eigenvalues --   -0.79005  -0.75473  -0.73634  -0.73610  -0.72694
  Beta  occ. eigenvalues --   -0.72406  -0.71686  -0.69890  -0.69848
  Beta virt. eigenvalues --   -0.64040  -0.36833  -0.19015  -0.18248  -0.18194
  Beta virt. eigenvalues --    0.03881   0.09001   0.09383   0.09414   0.19906
  Beta virt. eigenvalues --    0.20035   0.20356   0.61749   0.62343   0.79549
  Beta virt. eigenvalues --    0.79837   0.80271   0.88083   0.88415   0.88426
  Beta virt. eigenvalues --    0.88892   0.89305   0.89317   0.89482   0.94860
  Beta virt. eigenvalues --    0.95871   1.11408   1.11707   1.12106   1.21385
  Beta virt. eigenvalues --    1.21546   1.22500   1.22664   1.22789   1.38066
  Beta virt. eigenvalues --    1.38073   1.38218   1.41339   1.50822   1.52385
  Beta virt. eigenvalues --    1.52442   1.54408   1.55430   1.63322   1.63513
  Beta virt. eigenvalues --    1.65429   1.68579   1.69286   1.69315   1.70419
  Beta virt. eigenvalues --    1.70742   1.70777   1.73763   1.73795   1.74771
  Beta virt. eigenvalues --    1.77430   1.77465   1.78161   1.88988   1.89773
  Beta virt. eigenvalues --    1.89781   2.06174   2.21482   2.22794   2.22809
  Beta virt. eigenvalues --    2.26037   2.74183   2.75021
          Condensed to atoms (all electrons):
               1          2          3          4          5          6
     1  S   12.726305   0.240523   0.215995   0.240523   0.215995   0.240523
     2  F    0.240523   9.018835  -0.021023   0.000090  -0.021023  -0.025707
     3  F    0.215995  -0.021023   8.981296  -0.021023   0.000132  -0.021023
     4  F    0.240523   0.000090  -0.021023   9.018835  -0.021023  -0.028456
     5  F    0.215995  -0.021023   0.000132  -0.021023   8.981296  -0.021023
     6  F    0.240523  -0.025707  -0.021023  -0.028456  -0.021023   9.018835
     7  F    0.240523  -0.028456  -0.021023  -0.025707  -0.021023   0.000090
               7
     1  S    0.240523
     2  F   -0.028456
     3  F   -0.021023
     4  F   -0.025707
     5  F   -0.021023
     6  F    0.000090
     7  F    9.018835
          Atomic-Atomic Spin Densities.
               1          2          3          4          5          6
     1  S   -0.045312  -0.001190  -0.004510  -0.001190  -0.004510  -0.001190
     2  F   -0.001190   0.147738  -0.003783  -0.000028  -0.003783  -0.001052
     3  F   -0.004510  -0.003783   0.270945  -0.003783  -0.000034  -0.003783
     4  F   -0.001190  -0.000028  -0.003783   0.147738  -0.003783   0.001238
     5  F   -0.004510  -0.003783  -0.000034  -0.003783   0.270945  -0.003783
     6  F   -0.001190  -0.001052  -0.003783   0.001238  -0.003783   0.147738
     7  F   -0.001190   0.001238  -0.003783  -0.001052  -0.003783  -0.000028
               7
     1  S   -0.001190
     2  F    0.001238
     3  F   -0.003783
     4  F   -0.001052
     5  F   -0.003783
     6  F   -0.000028
     7  F    0.147738
 Mulliken charges and spin densities:
               1          2
     1  S    1.879614  -0.059093
     2  F   -0.163239   0.139139
     3  F   -0.113330   0.251269
     4  F   -0.163239   0.139139
     5  F   -0.113330   0.251269
     6  F   -0.163239   0.139139
     7  F   -0.163239   0.139139
 Sum of Mulliken charges =   1.00000   1.00000
 Mulliken charges and spin densities with hydrogens summed into heavy atoms:
               1          2
     1  S    1.879614  -0.059093
     2  F   -0.163239   0.139139
     3  F   -0.113330   0.251269
     4  F   -0.163239   0.139139
     5  F   -0.113330   0.251269
     6  F   -0.163239   0.139139
     7  F   -0.163239   0.139139
 Electronic spatial extent (au):  <R**2>=            573.5120
 Charge=              1.0000 electrons
 Dipole moment (field-independent basis, Debye):
    X=             -0.0000    Y=              0.0000    Z=              0.0000  Tot=              0.0000
 Quadrupole moment (field-independent basis, Debye-Ang):
   XX=            -36.2862   YY=            -34.7661   ZZ=            -36.2862
   XY=              0.0000   XZ=             -0.1344   YZ=              0.0000
 Traceless Quadrupole moment (field-independent basis, Debye-Ang):
   XX=             -0.5067   YY=              1.0134   ZZ=             -0.5067
   XY=              0.0000   XZ=             -0.1344   YZ=              0.0000
 Octapole moment (field-independent basis, Debye-Ang**2):
  XXX=              0.0000  YYY=              0.0000  ZZZ=              0.0000  XYY=             -0.0000
  XXY=              0.0000  XXZ=              0.0000  XZZ=             -0.0000  YZZ=             -0.0000
  YYZ=              0.0000  XYZ=              0.0000
 Hexadecapole moment (field-independent basis, Debye-Ang**3):
 XXXX=           -150.9383 YYYY=           -146.7360 ZZZZ=           -150.9383 XXXY=              0.0000
 XXXZ=             -0.0196 YYYX=              0.0000 YYYZ=              0.0000 ZZZX=             -0.0196
 ZZZY=              0.0000 XXYY=            -53.2083 XXZZ=            -54.3026 YYZZ=            -53.2083
 XXYZ=              0.0000 YYXZ=             -0.4239 ZZXY=              0.0000
 N-N= 5.532324529864D+02 E-N=-3.456960129359D+03  KE= 9.921951899542D+02
                          Isotropic Fermi Contact Couplings
        Atom                 a.u.       MegaHertz       Gauss      10(-4) cm-1
     1  S(33)             -0.04798     -16.47943      -5.88027      -5.49695
     2  F(19)              0.02602     109.49059      39.06896      36.52213
     3  F(19)              0.04771     200.75758      71.63529      66.96552
     4  F(19)              0.02602     109.49059      39.06896      36.52213
     5  F(19)              0.04771     200.75758      71.63530      66.96552
     6  F(19)              0.02602     109.49063      39.06898      36.52214
     7  F(19)              0.02602     109.49063      39.06898      36.52214
 --------------------------------------------------------
       Center         ----  Spin Dipole Couplings  ----
                      3XX-RR        3YY-RR        3ZZ-RR
 --------------------------------------------------------
     1   Atom        0.006562     -0.013123      0.006561
     2   Atom       -0.472447      0.946691     -0.474245
     3   Atom        0.424270     -0.848538      0.424268
     4   Atom       -0.472447      0.946691     -0.474245
     5   Atom        0.424269     -0.848538      0.424269
     6   Atom       -0.474245      0.946692     -0.472447
     7   Atom       -0.474245      0.946692     -0.472447
 --------------------------------------------------------
                        XY            XZ            YZ
 --------------------------------------------------------
     1   Atom        0.000000      0.004084     -0.000000
     2   Atom        0.000000     -0.004465      0.000000
     3   Atom        0.000000     -1.287533     -0.000000
     4   Atom        0.000000     -0.004465     -0.000000
     5   Atom        0.000000     -1.287533     -0.000000
     6   Atom       -0.000000     -0.004465      0.000001
     7   Atom        0.000000     -0.004465      0.000000
 --------------------------------------------------------


 ---------------------------------------------------------------------------------
              Anisotropic Spin Dipole Couplings in Principal Axis System
 ---------------------------------------------------------------------------------

       Atom             a.u.   MegaHertz   Gauss  10(-4) cm-1        Axes

              Baa    -0.0131    -0.538    -0.192    -0.179 -0.0000  1.0000  0.0000
     1 S(33)  Bbb     0.0025     0.102     0.036     0.034 -0.7071 -0.0000  0.7071
              Bcc     0.0106     0.436     0.156     0.146  0.7071 -0.0000  0.7071
 
              Baa    -0.4779  -240.014   -85.643   -80.060  0.6335 -0.0000  0.7737
     2 F(19)  Bbb    -0.4688  -235.439   -84.010   -78.534  0.7737 -0.0000 -0.6335
              Bcc     0.9467   475.453   169.653   158.594  0.0000  1.0000  0.0000
 
              Baa    -0.8633  -433.554  -154.703  -144.618  0.7071  0.0000  0.7071
     3 F(19)  Bbb    -0.8485  -426.157  -152.064  -142.151 -0.0000  1.0000 -0.0000
              Bcc     1.7118   859.711   306.766   286.769  0.7071  0.0000 -0.7071
 
              Baa    -0.4779  -240.014   -85.643   -80.060  0.6335 -0.0000  0.7737
     4 F(19)  Bbb    -0.4688  -235.439   -84.010   -78.534  0.7737 -0.0000 -0.6335
              Bcc     0.9467   475.453   169.653   158.594  0.0000  1.0000 -0.0000
 
              Baa    -0.8633  -433.554  -154.703  -144.618  0.7071  0.0000  0.7071
     5 F(19)  Bbb    -0.8485  -426.157  -152.064  -142.151 -0.0000  1.0000 -0.0000
              Bcc     1.7118   859.711   306.766   286.769  0.7071  0.0000 -0.7071
 
              Baa    -0.4779  -240.014   -85.643   -80.060  0.7737 -0.0000  0.6335
     6 F(19)  Bbb    -0.4688  -235.439   -84.010   -78.534 -0.6335 -0.0000  0.7737
              Bcc     0.9467   475.453   169.653   158.594 -0.0000  1.0000  0.0000
 
              Baa    -0.4779  -240.014   -85.643   -80.060  0.7737 -0.0000  0.6335
     7 F(19)  Bbb    -0.4688  -235.439   -84.010   -78.534 -0.6335 -0.0000  0.7737
              Bcc     0.9467   475.453   169.653   158.594  0.0000  1.0000  0.0000
 

 ---------------------------------------------------------------------------------

 1\1\GINC-LOCALHOST\SP\UB3LYP\6-31G(d)\F6S1(1+,2)\ROOT\04-Feb-2021\0\\#
  UB3LYP/6-31g(d) NoSymm 5D\\Single point of SF6^+1 at the UB3LYP/6-31G
 (d) level of theory\\1,2\S,0,0.,0.,0.\F,0,0.,0.,1.600072\F,0,0.,1.6000
 72,0.\F,0,0.,0.,-1.600072\F,0,0.,-1.600072,0.\F,0,1.600072,0.,0.\F,0,-
 1.600072,0.,0.\\Version=ES64L-G09RevE.01\HF=-996.5659719\S2=0.752755\S
 2-1=0.\S2A=0.750006\RMSD=9.846e-09\Dipole=0.,0.,0.\Quadrupole=-0.37670
 76,0.7534158,-0.3767082,0.,-0.0999266,0.\PG=OH [O(S1),3C4(F1.F1)]\\@


 LET US LEARN TO DREAM, GENTLEMEN, THEN PERHAPS WE SHALL
 DISCOVER THE TRUTH;  BUT LET US BEWARE OF PUBLISHING
 OUR DREAMS ABROAD BEFORE THEY HAVE BEEN SCRUTINIZED
 BY OUR VIGILANT INTELLECT ... LET US ALWAYS ALLOW
 THE FRUIT TO HANG UNTIL IT IS RIPE.  UNRIPE FRUIT
 BRINGS EVEN THE GROWER BUT LITTLE PROFIT; IT DAMAGES
 THE HEALTH OF THOSE WHO CONSUME IT; IT ENDANGERS
 PARTICULARLY THE YOUTH WHO CANNOT YET DISTINGUISH
 BETWEEN RIPE AND UNRIPE FRUIT.

                                  -- KEKULE, 1890
 Job cpu time:       0 days  0 hours  1 minutes 11.4 seconds.
 File lengths (MBytes):  RWF=      9 Int=      0 D2E=      0 Chk=      2 Scr=      1
 Normal termination of Gaussian 09 at Thu Feb  4 14:35:59 2021.
