Single point of SF6 at the B3LYP/6-31G(d) level of theory               
SP        RB3LYP                                                      6-31G(d)            
Number of atoms                            I                7
Info1-9                                    I   N=           9
          16          16           0           0           0         110
           1          18        -502
Charge                                     I                0
Multiplicity                               I                1
Number of electrons                        I               70
Number of alpha electrons                  I               35
Number of beta electrons                   I               35
Number of basis functions                  I              102
Number of independent functions            I              102
Number of point charges in /Mol/           I                0
Number of translation vectors              I                0
Atomic numbers                             I   N=           7
          16           9           9           9           9           9
           9
Nuclear charges                            R   N=           7
  1.60000000E+01  9.00000000E+00  9.00000000E+00  9.00000000E+00  9.00000000E+00
  9.00000000E+00  9.00000000E+00
Current cartesian coordinates              R   N=          21
  0.00000000E+00  0.00000000E+00  0.00000000E+00  0.00000000E+00  0.00000000E+00
  3.02369787E+00  0.00000000E+00  3.02369787E+00  0.00000000E+00  0.00000000E+00
  0.00000000E+00 -3.02369787E+00  0.00000000E+00 -3.02369787E+00  0.00000000E+00
  3.02369787E+00  0.00000000E+00  0.00000000E+00 -3.02369787E+00  0.00000000E+00
  0.00000000E+00
Force Field                                I                0
Int Atom Types                             I   N=           7
           0           0           0           0           0           0
           0
MM charges                                 R   N=           7
  0.00000000E+00  0.00000000E+00  0.00000000E+00  0.00000000E+00  0.00000000E+00
  0.00000000E+00  0.00000000E+00
Integer atomic weights                     I   N=           7
          32          19          19          19          19          19
          19
Real atomic weights                        R   N=           7
  3.19720718E+01  1.89984032E+01  1.89984032E+01  1.89984032E+01  1.89984032E+01
  1.89984032E+01  1.89984032E+01
Atom fragment info                         I   N=           7
           0           0           0           0           0           0
           0
Atom residue num                           I   N=           7
           0           0           0           0           0           0
           0
Nuclear spins                              I   N=           7
           0           1           1           1           1           1
           1
Nuclear ZEff                               R   N=           7
 -1.36000000E+01 -6.75000000E+00 -6.75000000E+00 -6.75000000E+00 -6.75000000E+00
 -6.75000000E+00 -6.75000000E+00
Nuclear ZNuc                               R   N=           7
  1.60000000E+01  9.00000000E+00  9.00000000E+00  9.00000000E+00  9.00000000E+00
  9.00000000E+00  9.00000000E+00
Nuclear QMom                               R   N=           7
  0.00000000E+00  0.00000000E+00  0.00000000E+00  0.00000000E+00  0.00000000E+00
  0.00000000E+00  0.00000000E+00
Nuclear GFac                               R   N=           7
  0.00000000E+00  2.62886700E+00  2.62886700E+00  2.62886700E+00  2.62886700E+00
  2.62886700E+00  2.62886700E+00
MicOpt                                     I   N=           7
          -1          -1          -1          -1          -1          -1
          -1
Number of contracted shells                I               29
Number of primitive shells                 I               83
Pure/Cartesian d shells                    I                0
Pure/Cartesian f shells                    I                0
Highest angular momentum                   I                2
Largest degree of contraction              I                6
Shell types                                I   N=          29
           0          -1          -1          -1          -2           0
          -1          -1          -2           0          -1          -1
          -2           0          -1          -1          -2           0
          -1          -1          -2           0          -1          -1
          -2           0          -1          -1          -2
Number of primitives per shell             I   N=          29
           6           6           3           1           1           6
           3           1           1           6           3           1
           1           6           3           1           1           6
           3           1           1           6           3           1
           1           6           3           1           1
Shell to atom map                          I   N=          29
           1           1           1           1           1           2
           2           2           2           3           3           3
           3           4           4           4           4           5
           5           5           5           6           6           6
           6           7           7           7           7
Primitive exponents                        R   N=          83
  2.19171000E+04  3.30149000E+03  7.54146000E+02  2.12711000E+02  6.79896000E+01
  2.30515000E+01  4.23735000E+02  1.00710000E+02  3.21599000E+01  1.18079000E+01
  4.63110000E+00  1.87025000E+00  2.61584000E+00  9.22167000E-01  3.41287000E-01
  1.17167000E-01  6.50000000E-01  7.00171309E+03  1.05136609E+03  2.39285690E+02
  6.73974453E+01  2.15199573E+01  7.40310130E+00  2.08479528E+01  4.80830834E+00
  1.34406986E+00  3.58151393E-01  8.00000000E-01  7.00171309E+03  1.05136609E+03
  2.39285690E+02  6.73974453E+01  2.15199573E+01  7.40310130E+00  2.08479528E+01
  4.80830834E+00  1.34406986E+00  3.58151393E-01  8.00000000E-01  7.00171309E+03
  1.05136609E+03  2.39285690E+02  6.73974453E+01  2.15199573E+01  7.40310130E+00
  2.08479528E+01  4.80830834E+00  1.34406986E+00  3.58151393E-01  8.00000000E-01
  7.00171309E+03  1.05136609E+03  2.39285690E+02  6.73974453E+01  2.15199573E+01
  7.40310130E+00  2.08479528E+01  4.80830834E+00  1.34406986E+00  3.58151393E-01
  8.00000000E-01  7.00171309E+03  1.05136609E+03  2.39285690E+02  6.73974453E+01
  2.15199573E+01  7.40310130E+00  2.08479528E+01  4.80830834E+00  1.34406986E+00
  3.58151393E-01  8.00000000E-01  7.00171309E+03  1.05136609E+03  2.39285690E+02
  6.73974453E+01  2.15199573E+01  7.40310130E+00  2.08479528E+01  4.80830834E+00
  1.34406986E+00  3.58151393E-01  8.00000000E-01
Contraction coefficients                   R   N=          83
  1.86924085E-03  1.42303065E-02  6.96962317E-02  2.38487108E-01  4.83307220E-01
  3.38074154E-01 -2.37677050E-03 -3.16930067E-02 -1.13317024E-01  5.60900118E-02
  5.92255124E-01  4.55006095E-01 -2.50373114E-01  6.69567631E-02  1.05450627E+00
  1.00000000E+00  1.00000000E+00  1.81961690E-03  1.39160796E-02  6.84053245E-02
  2.33185760E-01  4.71267439E-01  3.56618546E-01 -1.08506975E-01 -1.46451658E-01
  1.12868858E+00  1.00000000E+00  1.00000000E+00  1.81961690E-03  1.39160796E-02
  6.84053245E-02  2.33185760E-01  4.71267439E-01  3.56618546E-01 -1.08506975E-01
 -1.46451658E-01  1.12868858E+00  1.00000000E+00  1.00000000E+00  1.81961690E-03
  1.39160796E-02  6.84053245E-02  2.33185760E-01  4.71267439E-01  3.56618546E-01
 -1.08506975E-01 -1.46451658E-01  1.12868858E+00  1.00000000E+00  1.00000000E+00
  1.81961690E-03  1.39160796E-02  6.84053245E-02  2.33185760E-01  4.71267439E-01
  3.56618546E-01 -1.08506975E-01 -1.46451658E-01  1.12868858E+00  1.00000000E+00
  1.00000000E+00  1.81961690E-03  1.39160796E-02  6.84053245E-02  2.33185760E-01
  4.71267439E-01  3.56618546E-01 -1.08506975E-01 -1.46451658E-01  1.12868858E+00
  1.00000000E+00  1.00000000E+00  1.81961690E-03  1.39160796E-02  6.84053245E-02
  2.33185760E-01  4.71267439E-01  3.56618546E-01 -1.08506975E-01 -1.46451658E-01
  1.12868858E+00  1.00000000E+00  1.00000000E+00
P(S=P) Contraction coefficients            R   N=          83
  0.00000000E+00  0.00000000E+00  0.00000000E+00  0.00000000E+00  0.00000000E+00
  0.00000000E+00  4.06100998E-03  3.06812999E-02  1.30451999E-01  3.27204999E-01
  4.52850998E-01  2.56041999E-01 -1.45104895E-02  3.10262776E-01  7.54482456E-01
  1.00000000E+00  0.00000000E+00  0.00000000E+00  0.00000000E+00  0.00000000E+00
  0.00000000E+00  0.00000000E+00  0.00000000E+00  7.16287242E-02  3.45912103E-01
  7.22469956E-01  1.00000000E+00  0.00000000E+00  0.00000000E+00  0.00000000E+00
  0.00000000E+00  0.00000000E+00  0.00000000E+00  0.00000000E+00  7.16287242E-02
  3.45912103E-01  7.22469956E-01  1.00000000E+00  0.00000000E+00  0.00000000E+00
  0.00000000E+00  0.00000000E+00  0.00000000E+00  0.00000000E+00  0.00000000E+00
  7.16287242E-02  3.45912103E-01  7.22469956E-01  1.00000000E+00  0.00000000E+00
  0.00000000E+00  0.00000000E+00  0.00000000E+00  0.00000000E+00  0.00000000E+00
  0.00000000E+00  7.16287242E-02  3.45912103E-01  7.22469956E-01  1.00000000E+00
  0.00000000E+00  0.00000000E+00  0.00000000E+00  0.00000000E+00  0.00000000E+00
  0.00000000E+00  0.00000000E+00  7.16287242E-02  3.45912103E-01  7.22469956E-01
  1.00000000E+00  0.00000000E+00  0.00000000E+00  0.00000000E+00  0.00000000E+00
  0.00000000E+00  0.00000000E+00  0.00000000E+00  7.16287242E-02  3.45912103E-01
  7.22469956E-01  1.00000000E+00  0.00000000E+00
Coordinates of each shell                  R   N=          87
  0.00000000E+00  0.00000000E+00  0.00000000E+00  0.00000000E+00  0.00000000E+00
  0.00000000E+00  0.00000000E+00  0.00000000E+00  0.00000000E+00  0.00000000E+00
  0.00000000E+00  0.00000000E+00  0.00000000E+00  0.00000000E+00  0.00000000E+00
  0.00000000E+00  0.00000000E+00  3.02369787E+00  0.00000000E+00  0.00000000E+00
  3.02369787E+00  0.00000000E+00  0.00000000E+00  3.02369787E+00  0.00000000E+00
  0.00000000E+00  3.02369787E+00  0.00000000E+00  3.02369787E+00  0.00000000E+00
  0.00000000E+00  3.02369787E+00  0.00000000E+00  0.00000000E+00  3.02369787E+00
  0.00000000E+00  0.00000000E+00  3.02369787E+00  0.00000000E+00  0.00000000E+00
  0.00000000E+00 -3.02369787E+00  0.00000000E+00  0.00000000E+00 -3.02369787E+00
  0.00000000E+00  0.00000000E+00 -3.02369787E+00  0.00000000E+00  0.00000000E+00
 -3.02369787E+00  0.00000000E+00 -3.02369787E+00  0.00000000E+00  0.00000000E+00
 -3.02369787E+00  0.00000000E+00  0.00000000E+00 -3.02369787E+00  0.00000000E+00
  0.00000000E+00 -3.02369787E+00  0.00000000E+00  3.02369787E+00  0.00000000E+00
  0.00000000E+00  3.02369787E+00  0.00000000E+00  0.00000000E+00  3.02369787E+00
  0.00000000E+00  0.00000000E+00  3.02369787E+00  0.00000000E+00  0.00000000E+00
 -3.02369787E+00  0.00000000E+00  0.00000000E+00 -3.02369787E+00  0.00000000E+00
  0.00000000E+00 -3.02369787E+00  0.00000000E+00  0.00000000E+00 -3.02369787E+00
  0.00000000E+00  0.00000000E+00
Constraint Structure                       R   N=          21
  0.00000000E+00  0.00000000E+00  0.00000000E+00  0.00000000E+00  0.00000000E+00
  3.02369787E+00  0.00000000E+00  3.02369787E+00  0.00000000E+00  0.00000000E+00
  0.00000000E+00 -3.02369787E+00  0.00000000E+00 -3.02369787E+00  0.00000000E+00
  3.02369787E+00  0.00000000E+00  0.00000000E+00 -3.02369787E+00  0.00000000E+00
  0.00000000E+00
Num ILSW                                   I              100
ILSW                                       I   N=         100
           0           0           0           0           2           0
           0           0           0           0         402          -1
           0           0           0           0           0           0
           0           0           1           0           0           0
           1           1           0           0           0           0
           0           0      100000           0          -1           0
           0           0           0           0           0           0
           0           0           0           1           0           0
           0           0           1           0           0           0
           0           0           4          41           0           0
           0           0           5           0           0           0
           0           0           0           0           0           0
           0           0           0           0           0           0
           0           0           0           0           0           0
           0           0           0           0           0           0
           0           0           0           0           0           0
           0           0           0           0
Num RLSW                                   I               41
RLSW                                       R   N=          41
  8.00000000E-01  7.20000000E-01  1.00000000E+00  8.10000000E-01  2.00000000E-01
  0.00000000E+00  0.00000000E+00  1.00000000E+00  0.00000000E+00  0.00000000E+00
  0.00000000E+00  0.00000000E+00  1.00000000E+00  0.00000000E+00  0.00000000E+00
  0.00000000E+00  0.00000000E+00  1.00000000E+00  0.00000000E+00  0.00000000E+00
  0.00000000E+00  0.00000000E+00  1.00000000E+00  0.00000000E+00  0.00000000E+00
  0.00000000E+00  0.00000000E+00  1.00000000E+00  0.00000000E+00  0.00000000E+00
  0.00000000E+00  0.00000000E+00  1.00000000E+00  0.00000000E+00  0.00000000E+00
  0.00000000E+00  0.00000000E+00  0.00000000E+00  1.00000000E+00  1.00000000E+00
  0.00000000E+00
MxBond                                     I                6
NBond                                      I   N=           7
           6           1           1           1           1           1
           1
IBond                                      I   N=          42
           2           3           4           5           6           7
           1           0           0           0           0           0
           1           0           0           0           0           0
           1           0           0           0           0           0
           1           0           0           0           0           0
           1           0           0           0           0           0
           1           0           0           0           0           0
RBond                                      R   N=          42
  1.00000000E+00  1.00000000E+00  1.00000000E+00  1.00000000E+00  1.00000000E+00
  1.00000000E+00  1.00000000E+00  0.00000000E+00  0.00000000E+00  0.00000000E+00
  0.00000000E+00  0.00000000E+00  1.00000000E+00  0.00000000E+00  0.00000000E+00
  0.00000000E+00  0.00000000E+00  0.00000000E+00  1.00000000E+00  0.00000000E+00
  0.00000000E+00  0.00000000E+00  0.00000000E+00  0.00000000E+00  1.00000000E+00
  0.00000000E+00  0.00000000E+00  0.00000000E+00  0.00000000E+00  0.00000000E+00
  1.00000000E+00  0.00000000E+00  0.00000000E+00  0.00000000E+00  0.00000000E+00
  0.00000000E+00  1.00000000E+00  0.00000000E+00  0.00000000E+00  0.00000000E+00
  0.00000000E+00  0.00000000E+00
Virial Ratio                               R      2.004322532571276E+00
SCF Energy                                 R     -9.970997209995792E+02
Total Energy                               R     -9.970997209995792E+02
RMS Density                                R      1.355663629842123E-09
Job Status                                 I                1
Nuclear derivative order                   I                0
External E-field                           R   N=          35
  0.00000000E+00  0.00000000E+00  0.00000000E+00  0.00000000E+00  0.00000000E+00
  0.00000000E+00  0.00000000E+00  0.00000000E+00  0.00000000E+00  0.00000000E+00
  0.00000000E+00  0.00000000E+00  0.00000000E+00  0.00000000E+00  0.00000000E+00
  0.00000000E+00  0.00000000E+00  0.00000000E+00  0.00000000E+00  0.00000000E+00
  0.00000000E+00  0.00000000E+00  0.00000000E+00  0.00000000E+00  0.00000000E+00
  0.00000000E+00  0.00000000E+00  0.00000000E+00  0.00000000E+00  0.00000000E+00
  0.00000000E+00  0.00000000E+00  0.00000000E+00  0.00000000E+00  0.00000000E+00
IOpCl                                      I                0
IROHF                                      I                0
Alpha Orbital Energies                     R   N=         102
 -8.93352814E+01 -2.47607738E+01 -2.47607306E+01 -2.47607306E+01 -2.47607306E+01
 -2.47606544E+01 -2.47606544E+01 -8.33723144E+00 -6.30376507E+00 -6.30376507E+00
 -6.30376507E+00 -1.38961744E+00 -1.27415667E+00 -1.27415667E+00 -1.27415667E+00
 -1.22801963E+00 -1.22801963E+00 -8.21156220E-01 -6.61767499E-01 -6.61767499E-01
 -6.61767499E-01 -5.47683946E-01 -5.47683946E-01 -5.47683946E-01 -5.20805522E-01
 -5.20805522E-01 -4.68331662E-01 -4.68331662E-01 -4.68331662E-01 -4.64204630E-01
 -4.64204630E-01 -4.64204630E-01 -4.27052181E-01 -4.27052181E-01 -4.27052181E-01
 -8.78393710E-02  9.45609465E-02  9.45609465E-02  9.45609465E-02  2.81372543E-01
  3.30241126E-01  3.30241126E-01  3.30241126E-01  4.82440332E-01  4.82440332E-01
  4.82440332E-01  9.00376008E-01  9.00376008E-01  1.05682553E+00  1.05682553E+00
  1.05682553E+00  1.13462363E+00  1.13462363E+00  1.13462363E+00  1.13510932E+00
  1.15083118E+00  1.15083118E+00  1.15083118E+00  1.19980755E+00  1.19980755E+00
  1.36777653E+00  1.36777653E+00  1.36777653E+00  1.47803511E+00  1.47803511E+00
  1.47803511E+00  1.48164932E+00  1.48164932E+00  1.64282043E+00  1.64282043E+00
  1.64282043E+00  1.67866340E+00  1.78351400E+00  1.78351400E+00  1.78351400E+00
  1.81329886E+00  1.81329886E+00  1.90075542E+00  1.90075542E+00  1.91651655E+00
  1.95893100E+00  1.95893100E+00  1.95893100E+00  1.97475240E+00  1.97475240E+00
  1.97475240E+00  2.01359889E+00  2.01359889E+00  2.01359889E+00  2.04307825E+00
  2.04307825E+00  2.04307825E+00  2.15017215E+00  2.15017215E+00  2.15017215E+00
  2.32786137E+00  2.49783478E+00  2.49783478E+00  2.49783478E+00  2.52008593E+00
  3.01918169E+00  3.01918169E+00
Alpha MO coefficients                      R   N=       10404
  9.96558503E-01  1.28628754E-02  1.51264092E-16  2.72386723E-16 -1.33291868E-17
 -5.70712584E-03  7.40752236E-18 -2.92292812E-16 -3.57826499E-17 -1.18690738E-03
  1.16823699E-15 -4.19433563E-15  3.34883164E-15 -2.84195902E-16 -5.32997429E-17
  1.87117671E-16 -1.06488615E-16  3.64866473E-17 -2.80646123E-05 -5.23164018E-04
  3.65848051E-16 -3.48602946E-16  1.24860141E-04  1.33780113E-03 -4.81938870E-16
  8.98722910E-16 -1.03200468E-03  5.41003202E-04 -3.68895211E-17 -6.28086712E-16
 -5.91596535E-17  3.26114081E-16 -2.80646123E-05 -5.23164018E-04  2.28888067E-16
  1.24860141E-04  4.35406702E-16  1.33780113E-03 -2.69882321E-16 -1.03200468E-03
 -9.78954998E-16 -2.70501601E-04 -1.75509929E-16  6.86451144E-16 -4.68522516E-04
  5.93289902E-16 -2.80646123E-05 -5.23164018E-04  1.19620727E-16 -5.92624650E-16
 -1.24860141E-04  1.33780113E-03 -2.32785331E-16  1.36230919E-15  1.03200468E-03
  5.41003202E-04 -1.42875942E-16  9.85430061E-16  3.49656047E-16  1.33776044E-16
 -2.80646123E-05 -5.23164018E-04  2.63474489E-16 -1.24860141E-04  5.77596403E-16
  1.33780113E-03 -4.07360722E-16  1.03200468E-03 -1.25198268E-15 -2.70501601E-04
 -6.10757796E-16 -7.36872012E-16 -4.68522516E-04 -2.49490606E-16 -2.80646123E-05
 -5.23164018E-04  1.24860141E-04 -4.60596789E-16  2.82085849E-16  1.33780113E-03
 -1.03200468E-03  1.14465484E-15 -8.02818212E-16 -2.70501601E-04  4.04660701E-16
  2.43104531E-16  4.68522516E-04 -9.22906447E-16 -2.80646123E-05 -5.23164018E-04
 -1.24860141E-04 -5.42833475E-16  4.84802815E-16  1.33780113E-03  1.03200468E-03
  1.23066286E-15 -1.12303501E-15 -2.70501601E-04 -1.84769003E-16 -1.56702216E-16
  4.68522516E-04  9.83592214E-16  3.87263622E-05 -1.23653724E-03 -7.56057543E-14
 -9.84418370E-14 -1.56228528E-13 -2.23098095E-03  4.70340078E-13  6.11042361E-13
  9.74865045E-13  1.81588329E-02  1.52426156E-12  1.98603722E-12  3.15738370E-12
  4.76851649E-13 -8.28760362E-16  5.28958580E-16 -1.14636085E-12 -6.91768642E-16
  4.06229125E-01  1.20397406E-02  2.69801565E-14  3.52895829E-14 -4.72512843E-04
 -8.43559526E-03 -2.15144595E-13 -2.80761811E-13  2.03457623E-03 -1.87508451E-04
  3.53428241E-14  4.69531947E-14 -1.41747928E-13  1.30613387E-16  4.06229125E-01
  1.20397406E-02  2.74166607E-14 -4.72512842E-04  5.51773245E-14 -8.43559526E-03
 -2.15231301E-13  2.03457623E-03 -4.44471310E-13  9.37542258E-05  1.58625655E-16
  7.42469891E-14  1.62387082E-04  3.57904821E-14  4.06229125E-01  1.20397406E-02
  2.72169362E-14  3.48873242E-14  4.72512842E-04 -8.43559525E-03 -2.15301274E-13
 -2.79641548E-13 -2.03457623E-03 -1.87508451E-04 -3.65385643E-14 -4.61692012E-14
 -1.41955110E-13 -7.56428615E-17  4.06229125E-01  1.20397406E-02  2.73548714E-14
  4.72512842E-04  5.54467930E-14 -8.43559525E-03 -2.15519763E-13 -2.03457623E-03
 -4.44770385E-13  9.37542257E-05  3.93849161E-17 -7.41757532E-14  1.62387082E-04
 -3.67758558E-14  4.06229125E-01  1.20397406E-02 -4.72512842E-04  3.54050110E-14
  5.53758688E-14 -8.43559525E-03  2.03457623E-03 -2.79762785E-13 -4.44427203E-13
  9.37542253E-05  7.36145860E-14 -9.56869062E-17 -1.62387082E-04  4.61657359E-14
  4.06229124E-01  1.20397406E-02  4.72512841E-04  3.50393705E-14  5.52349841E-14
 -8.43559525E-03 -2.03457623E-03 -2.79830623E-13 -4.44814747E-13  9.37542252E-05
 -7.45920158E-14  2.17858731E-17 -1.62387082E-04 -4.65836092E-14 -1.78432208E-14
  5.75044613E-13  4.19717917E-05 -2.67289387E-04 -2.34388314E-04  1.03898689E-12
 -2.61942151E-04  1.66812885E-03  1.46279624E-03 -8.45175691E-12 -8.49202066E-04
  5.40798212E-03  4.74230507E-03  1.04606939E-13 -1.82776868E-16 -9.72019708E-16
 -3.52237317E-13 -1.72786969E-16  4.60661823E-01  1.30296605E-02 -1.48638604E-05
  9.46576728E-05 -5.83438202E-04 -7.16978525E-03  1.19558162E-04 -7.61383457E-04
  1.53320086E-03 -2.48054580E-04 -1.99418610E-05  1.26995955E-04 -4.29880277E-14
 -3.98034389E-16  5.25324893E-01  1.48586331E-02 -1.48638604E-05 -6.65335384E-04
  8.30061105E-05 -8.17620753E-03  1.19558162E-04  1.74841616E-03 -6.67663566E-04
  1.41436992E-04 -3.98302222E-17  1.11363823E-04  2.44976057E-04 -1.99418610E-05
 -4.60661823E-01 -1.30296605E-02 -1.48638604E-05  9.46576728E-05 -5.83438203E-04
  7.16978526E-03  1.19558162E-04 -7.61383457E-04  1.53320086E-03  2.48054580E-04
  1.99418610E-05 -1.26995955E-04 -4.40800470E-14 -8.30494816E-16 -5.25324893E-01
 -1.48586331E-02 -1.48638604E-05 -6.65335385E-04  8.30061105E-05  8.17620754E-03
  1.19558162E-04  1.74841616E-03 -6.67663566E-04 -1.41436992E-04 -7.51417417E-16
 -1.11363823E-04 -2.44976057E-04  1.99418610E-05 -8.24904698E-02 -2.33321444E-03
  1.04475971E-04  9.46576728E-05  8.30061105E-05  1.28388967E-03 -2.74549470E-04
 -7.61383457E-04 -6.67663566E-04 -2.22095014E-05  1.11363823E-04  4.99106132E-16
  3.84679849E-05  1.26995955E-04  8.24904692E-02  2.33321443E-03  1.04475971E-04
  9.46576728E-05  8.30061105E-05 -1.28388966E-03 -2.74549467E-04 -7.61383457E-04
 -6.67663566E-04  2.22095012E-05 -1.11363823E-04 -2.67973073E-16 -3.84679845E-05
 -1.26995955E-04 -7.57746806E-16  3.01753198E-14 -1.96524901E-04 -2.14119159E-04
  2.08983441E-04  5.50731431E-14  1.22649411E-03  1.33629828E-03 -1.30424673E-03
 -4.47738367E-13  3.97622653E-03  4.33220562E-03 -4.22829625E-03 -3.19840466E-13
  4.13041905E-16 -1.32820540E-16  6.07582997E-13  6.60462321E-16 -4.10731624E-01
 -1.16174021E-02  6.95971882E-05  7.58280063E-05  5.20200521E-04  6.39266679E-03
 -5.59808267E-04 -6.09926146E-04 -1.36702033E-03  2.21168448E-04  9.33739563E-05
  1.01733434E-04  7.42478147E-14 -6.46533039E-17  4.20825255E-01  1.19028970E-02
  6.95971882E-05 -5.32984323E-04 -7.40092468E-05 -6.54976504E-03 -5.59808267E-04
  1.40061453E-03  5.95296868E-04  1.13301804E-04  8.52164744E-16 -9.92933242E-05
  1.96244482E-04  9.33739563E-05  4.10731623E-01  1.16174021E-02  6.95971882E-05
  7.58280063E-05  5.20200520E-04 -6.39266679E-03 -5.59808267E-04 -6.09926146E-04
 -1.36702033E-03 -2.21168448E-04 -9.33739563E-05 -1.01733434E-04  7.49532973E-14
  2.11344665E-16 -4.20825255E-01 -1.19028970E-02  6.95971882E-05 -5.32984324E-04
 -7.40092468E-05  6.54976505E-03 -5.59808267E-04  1.40061453E-03  5.95296868E-04
 -1.13301805E-04  7.32264310E-16  9.92933242E-05 -1.96244482E-04 -9.33739563E-05
  3.86245873E-01  1.09248311E-02 -4.89188785E-04  7.58280063E-05 -7.40092468E-05
 -6.01156819E-03  1.28552546E-03 -6.09926146E-04  5.95296868E-04  1.03991749E-04
 -9.92933242E-05 -3.22595098E-16 -1.80118994E-04  1.01733434E-04 -3.86245872E-01
 -1.09248311E-02 -4.89188785E-04  7.58280063E-05 -7.40092468E-05  6.01156819E-03
  1.28552546E-03 -6.09926146E-04  5.95296868E-04 -1.03991749E-04  9.92933242E-05
 -3.56286407E-17  1.80118993E-04 -1.01733434E-04 -1.18153545E-14  3.75301230E-13
 -2.96242234E-04  1.04175328E-04 -1.71846353E-04  6.76970300E-13  1.84882095E-03
 -6.50148787E-04  1.07247752E-03 -5.51141705E-12  5.99377599E-03 -2.10774666E-03
  3.47691322E-03 -6.77011798E-13 -8.60940298E-16  1.57247222E-16  9.37253640E-13
  3.73528326E-16  3.37743177E-01  9.55294910E-03  1.04911014E-04 -3.68925764E-05
 -4.27759068E-04 -5.25666754E-03 -8.43856688E-04  2.96747179E-04  1.12409604E-03
 -1.81866041E-04  1.40752186E-04 -4.94963361E-05  1.15818635E-13 -4.89201476E-16
 -2.04743981E-01 -5.79111278E-03  1.04911014E-04  2.59312698E-04  6.08575448E-05
  3.18665516E-03 -8.43856688E-04 -6.81440553E-04 -4.89510532E-04 -5.51246921E-05
 -3.23353949E-16  8.16485532E-05 -9.54787672E-05  1.40752186E-04 -3.37743178E-01
 -9.55294912E-03  1.04911014E-04 -3.68925764E-05 -4.27759069E-04  5.25666755E-03
 -8.43856688E-04  2.96747179E-04  1.12409604E-03  1.81866041E-04 -1.40752186E-04
  4.94963361E-05  1.15244120E-13 -5.47460433E-16  2.04743981E-01  5.79111277E-03
  1.04911014E-04  2.59312698E-04  6.08575448E-05 -3.18665515E-03 -8.43856688E-04
 -6.81440551E-04 -4.89510532E-04  5.51246917E-05 -5.06228212E-16 -8.16485532E-05
  9.54787670E-05 -1.40752186E-04  5.82228206E-01  1.64681237E-02 -7.37404667E-04
 -3.68925764E-05  6.08575448E-05 -9.06185622E-03  1.93780500E-03  2.96747179E-04
 -4.89510532E-04  1.56757480E-04  8.16485532E-05  1.64474789E-17 -2.71511920E-04
 -4.94963361E-05 -5.82228206E-01 -1.64681237E-02 -7.37404666E-04 -3.68925764E-05
  6.08575448E-05  9.06185622E-03  1.93780500E-03  2.96747179E-04 -4.89510532E-04
 -1.56757480E-04 -8.16485532E-05 -1.04418506E-16  2.71511920E-04  4.94963361E-05
  2.36635343E-14 -7.54479569E-13  2.31863112E-13 -3.33327419E-14 -1.97761810E-14
 -1.35940895E-12 -1.44405068E-12  2.09931749E-13  1.24754165E-13  1.10844229E-11
 -4.68114594E-12  6.71871290E-13  4.13521226E-13 -5.22289063E-04  4.74245196E-16
 -3.18287815E-17  1.94910287E-03 -6.13066378E-16 -1.48675816E-01 -3.98516401E-03
 -8.07736150E-14  1.13856708E-14  2.19814814E-04  1.45500180E-03  6.58485169E-13
 -9.44759194E-14 -4.58262704E-04  1.65987751E-04 -1.09445499E-13  1.61848424E-14
  2.40474999E-04  2.13342758E-16 -4.06163642E-01 -1.08869672E-02 -8.14105217E-14
  6.00506444E-04  7.16868702E-15  3.97488205E-03  6.58514101E-13 -1.25191611E-03
 -5.81120746E-14 -3.79186515E-04  3.04093207E-16  9.41356596E-15 -3.04684381E-04
 -1.10080487E-13 -1.48675816E-01 -3.98516401E-03 -8.16160112E-14  1.13030770E-14
 -2.19814815E-04  1.45500181E-03  6.58657861E-13 -9.39017951E-14  4.58262705E-04
  1.65987751E-04  1.10245217E-13 -1.49754988E-14  2.40474999E-04 -1.80278894E-17
 -4.06163642E-01 -1.08869672E-02 -8.13213664E-14 -6.00506444E-04  7.64317494E-15
  3.97488206E-03  6.58069482E-13  1.25191611E-03 -5.91828417E-14 -3.79186515E-04
  9.92265749E-17 -1.05668993E-14 -3.04684381E-04  1.09618723E-13  5.54839458E-01
  1.48721312E-02 -8.20321259E-04  1.13826790E-14  7.26479625E-15 -5.42988387E-03
  1.71017882E-03 -9.42356219E-14 -5.89041692E-14  3.65522490E-04  1.00496055E-14
 -1.22841005E-16 -5.04239455E-04  1.57635138E-14  5.54839459E-01  1.48721312E-02
  8.20321260E-04  1.18075046E-14  7.75799207E-15 -5.42988388E-03 -1.71017882E-03
 -9.45052043E-14 -5.89067246E-14  3.65522490E-04 -9.71025023E-15 -4.88890873E-17
 -5.04239456E-04 -1.59497308E-14 -2.93453626E-15  9.97271573E-14 -7.61310880E-14
  5.29137393E-15 -1.75319303E-14  1.78805507E-13  4.73058394E-13 -3.70258125E-14
  1.11854117E-13 -1.46227024E-12  1.52788449E-12 -1.25514367E-13  3.67053726E-13
  1.94910287E-03 -3.12949800E-16  4.41435756E-16  5.22289063E-04  4.70049682E-18
  5.54835399E-01  1.48720224E-02  2.66485961E-14 -2.52432687E-15 -8.20315257E-04
 -5.42984414E-03 -2.14956112E-13  1.78330734E-14  1.71016630E-03 -6.19440891E-04
  3.50326076E-14 -2.75526060E-15  6.44386007E-05 -2.65842798E-16 -4.06174733E-01
 -1.08872645E-02  2.65463086E-14  6.00522842E-04  6.22152803E-15  3.97499060E-03
 -2.15025310E-13 -1.25195030E-03 -5.18743289E-14 -7.42815107E-05 -2.95178248E-16
  9.49000174E-15 -4.80735666E-04  3.55183937E-14  5.54835399E-01  1.48720224E-02
  2.67120473E-14 -1.83473234E-15  8.20315257E-04 -5.42984414E-03 -2.15175246E-13
  1.75846509E-14 -1.71016630E-03 -6.19440891E-04 -3.61307154E-14  2.94383939E-15
  6.44386007E-05  2.30462383E-16 -4.06174733E-01 -1.08872645E-02  2.69937423E-14
 -6.00522842E-04  6.38660314E-15  3.97499060E-03 -2.15820953E-13  1.25195030E-03
 -5.16480370E-14 -7.42815107E-05  8.56250719E-17 -8.09508706E-15 -4.80735666E-04
 -3.67385757E-14 -1.48660665E-01 -3.98475791E-03  2.19792415E-04 -1.74986640E-15
  7.09886958E-15  1.45485354E-03 -4.58216007E-04  1.72178472E-14 -5.20862082E-14
  1.25273564E-04  9.25779885E-15 -3.80867599E-16  2.63973340E-04 -2.69321818E-15
 -1.48660666E-01 -3.98475792E-03 -2.19792415E-04 -2.28284874E-15  6.47396497E-15
  1.45485354E-03  4.58216008E-04  1.79761484E-14 -5.16043798E-14  1.25273564E-04
 -8.49012407E-15  1.06501844E-16  2.63973340E-04  3.08609898E-15 -2.80754063E-01
  1.02634693E+00 -7.51460988E-16  5.90382268E-16 -1.47971468E-15  3.76286139E-02
  7.68223000E-16 -1.47935059E-16  5.39608833E-16 -6.82542816E-04  7.79709971E-16
 -6.83554796E-15 -5.50098001E-15 -2.19406360E-15  7.95566588E-17  3.09284615E-17
 -5.25967406E-15 -7.47584828E-17  5.89805851E-05  1.38658140E-03  1.10046573E-16
 -5.53312195E-16 -3.47108134E-04 -4.02237446E-03  1.81928811E-18  1.62125970E-15