Single point of SF6^+3 at the UB3LYP/6-31G(d) level of theory           
SP        UB3LYP                                                      6-31G(d)            
Number of atoms                            I                7
Info1-9                                    I   N=           9
          16          16           0           0           0         110
           1          18        -502
Charge                                     I                3
Multiplicity                               I                4
Number of electrons                        I               67
Number of alpha electrons                  I               35
Number of beta electrons                   I               32
Number of basis functions                  I              102
Number of independent functions            I              102
Number of point charges in /Mol/           I                0
Number of translation vectors              I                0
Atomic numbers                             I   N=           7
          16           9           9           9           9           9
           9
Nuclear charges                            R   N=           7
  1.60000000E+01  9.00000000E+00  9.00000000E+00  9.00000000E+00  9.00000000E+00
  9.00000000E+00  9.00000000E+00
Current cartesian coordinates              R   N=          21
  0.00000000E+00  0.00000000E+00  0.00000000E+00  0.00000000E+00  0.00000000E+00
  3.02369787E+00  0.00000000E+00  3.02369787E+00  0.00000000E+00  0.00000000E+00
  0.00000000E+00 -3.02369787E+00  0.00000000E+00 -3.02369787E+00  0.00000000E+00
  3.02369787E+00  0.00000000E+00  0.00000000E+00 -3.02369787E+00  0.00000000E+00
  0.00000000E+00
Force Field                                I                0
Int Atom Types                             I   N=           7
           0           0           0           0           0           0
           0
MM charges                                 R   N=           7
  0.00000000E+00  0.00000000E+00  0.00000000E+00  0.00000000E+00  0.00000000E+00
  0.00000000E+00  0.00000000E+00
Integer atomic weights                     I   N=           7
          32          19          19          19          19          19
          19
Real atomic weights                        R   N=           7
  3.19720718E+01  1.89984032E+01  1.89984032E+01  1.89984032E+01  1.89984032E+01
  1.89984032E+01  1.89984032E+01
Atom fragment info                         I   N=           7
           0           0           0           0           0           0
           0
Atom residue num                           I   N=           7
           0           0           0           0           0           0
           0
Nuclear spins                              I   N=           7
           0           1           1           1           1           1
           1
Nuclear ZEff                               R   N=           7
 -1.36000000E+01 -6.75000000E+00 -6.75000000E+00 -6.75000000E+00 -6.75000000E+00
 -6.75000000E+00 -6.75000000E+00
Nuclear ZNuc                               R   N=           7
  1.60000000E+01  9.00000000E+00  9.00000000E+00  9.00000000E+00  9.00000000E+00
  9.00000000E+00  9.00000000E+00
Nuclear QMom                               R   N=           7
  0.00000000E+00  0.00000000E+00  0.00000000E+00  0.00000000E+00  0.00000000E+00
  0.00000000E+00  0.00000000E+00
Nuclear GFac                               R   N=           7
  0.00000000E+00  2.62886700E+00  2.62886700E+00  2.62886700E+00  2.62886700E+00
  2.62886700E+00  2.62886700E+00
MicOpt                                     I   N=           7
          -1          -1          -1          -1          -1          -1
          -1
Number of contracted shells                I               29
Number of primitive shells                 I               83
Pure/Cartesian d shells                    I                0
Pure/Cartesian f shells                    I                0
Highest angular momentum                   I                2
Largest degree of contraction              I                6
Shell types                                I   N=          29
           0          -1          -1          -1          -2           0
          -1          -1          -2           0          -1          -1
          -2           0          -1          -1          -2           0
          -1          -1          -2           0          -1          -1
          -2           0          -1          -1          -2
Number of primitives per shell             I   N=          29
           6           6           3           1           1           6
           3           1           1           6           3           1
           1           6           3           1           1           6
           3           1           1           6           3           1
           1           6           3           1           1
Shell to atom map                          I   N=          29
           1           1           1           1           1           2
           2           2           2           3           3           3
           3           4           4           4           4           5
           5           5           5           6           6           6
           6           7           7           7           7
Primitive exponents                        R   N=          83
  2.19171000E+04  3.30149000E+03  7.54146000E+02  2.12711000E+02  6.79896000E+01
  2.30515000E+01  4.23735000E+02  1.00710000E+02  3.21599000E+01  1.18079000E+01
  4.63110000E+00  1.87025000E+00  2.61584000E+00  9.22167000E-01  3.41287000E-01
  1.17167000E-01  6.50000000E-01  7.00171309E+03  1.05136609E+03  2.39285690E+02
  6.73974453E+01  2.15199573E+01  7.40310130E+00  2.08479528E+01  4.80830834E+00
  1.34406986E+00  3.58151393E-01  8.00000000E-01  7.00171309E+03  1.05136609E+03
  2.39285690E+02  6.73974453E+01  2.15199573E+01  7.40310130E+00  2.08479528E+01
  4.80830834E+00  1.34406986E+00  3.58151393E-01  8.00000000E-01  7.00171309E+03
  1.05136609E+03  2.39285690E+02  6.73974453E+01  2.15199573E+01  7.40310130E+00
  2.08479528E+01  4.80830834E+00  1.34406986E+00  3.58151393E-01  8.00000000E-01
  7.00171309E+03  1.05136609E+03  2.39285690E+02  6.73974453E+01  2.15199573E+01
  7.40310130E+00  2.08479528E+01  4.80830834E+00  1.34406986E+00  3.58151393E-01
  8.00000000E-01  7.00171309E+03  1.05136609E+03  2.39285690E+02  6.73974453E+01
  2.15199573E+01  7.40310130E+00  2.08479528E+01  4.80830834E+00  1.34406986E+00
  3.58151393E-01  8.00000000E-01  7.00171309E+03  1.05136609E+03  2.39285690E+02
  6.73974453E+01  2.15199573E+01  7.40310130E+00  2.08479528E+01  4.80830834E+00
  1.34406986E+00  3.58151393E-01  8.00000000E-01
Contraction coefficients                   R   N=          83
  1.86924085E-03  1.42303065E-02  6.96962317E-02  2.38487108E-01  4.83307220E-01
  3.38074154E-01 -2.37677050E-03 -3.16930067E-02 -1.13317024E-01  5.60900118E-02
  5.92255124E-01  4.55006095E-01 -2.50373114E-01  6.69567631E-02  1.05450627E+00
  1.00000000E+00  1.00000000E+00  1.81961690E-03  1.39160796E-02  6.84053245E-02
  2.33185760E-01  4.71267439E-01  3.56618546E-01 -1.08506975E-01 -1.46451658E-01
  1.12868858E+00  1.00000000E+00  1.00000000E+00  1.81961690E-03  1.39160796E-02
  6.84053245E-02  2.33185760E-01  4.71267439E-01  3.56618546E-01 -1.08506975E-01
 -1.46451658E-01  1.12868858E+00  1.00000000E+00  1.00000000E+00  1.81961690E-03
  1.39160796E-02  6.84053245E-02  2.33185760E-01  4.71267439E-01  3.56618546E-01
 -1.08506975E-01 -1.46451658E-01  1.12868858E+00  1.00000000E+00  1.00000000E+00
  1.81961690E-03  1.39160796E-02  6.84053245E-02  2.33185760E-01  4.71267439E-01
  3.56618546E-01 -1.08506975E-01 -1.46451658E-01  1.12868858E+00  1.00000000E+00
  1.00000000E+00  1.81961690E-03  1.39160796E-02  6.84053245E-02  2.33185760E-01
  4.71267439E-01  3.56618546E-01 -1.08506975E-01 -1.46451658E-01  1.12868858E+00
  1.00000000E+00  1.00000000E+00  1.81961690E-03  1.39160796E-02  6.84053245E-02
  2.33185760E-01  4.71267439E-01  3.56618546E-01 -1.08506975E-01 -1.46451658E-01
  1.12868858E+00  1.00000000E+00  1.00000000E+00
P(S=P) Contraction coefficients            R   N=          83
  0.00000000E+00  0.00000000E+00  0.00000000E+00  0.00000000E+00  0.00000000E+00
  0.00000000E+00  4.06100998E-03  3.06812999E-02  1.30451999E-01  3.27204999E-01
  4.52850998E-01  2.56041999E-01 -1.45104895E-02  3.10262776E-01  7.54482456E-01
  1.00000000E+00  0.00000000E+00  0.00000000E+00  0.00000000E+00  0.00000000E+00
  0.00000000E+00  0.00000000E+00  0.00000000E+00  7.16287242E-02  3.45912103E-01
  7.22469956E-01  1.00000000E+00  0.00000000E+00  0.00000000E+00  0.00000000E+00
  0.00000000E+00  0.00000000E+00  0.00000000E+00  0.00000000E+00  7.16287242E-02
  3.45912103E-01  7.22469956E-01  1.00000000E+00  0.00000000E+00  0.00000000E+00
  0.00000000E+00  0.00000000E+00  0.00000000E+00  0.00000000E+00  0.00000000E+00
  7.16287242E-02  3.45912103E-01  7.22469956E-01  1.00000000E+00  0.00000000E+00
  0.00000000E+00  0.00000000E+00  0.00000000E+00  0.00000000E+00  0.00000000E+00
  0.00000000E+00  7.16287242E-02  3.45912103E-01  7.22469956E-01  1.00000000E+00
  0.00000000E+00  0.00000000E+00  0.00000000E+00  0.00000000E+00  0.00000000E+00
  0.00000000E+00  0.00000000E+00  7.16287242E-02  3.45912103E-01  7.22469956E-01
  1.00000000E+00  0.00000000E+00  0.00000000E+00  0.00000000E+00  0.00000000E+00
  0.00000000E+00  0.00000000E+00  0.00000000E+00  7.16287242E-02  3.45912103E-01
  7.22469956E-01  1.00000000E+00  0.00000000E+00
Coordinates of each shell                  R   N=          87
  0.00000000E+00  0.00000000E+00  0.00000000E+00  0.00000000E+00  0.00000000E+00
  0.00000000E+00  0.00000000E+00  0.00000000E+00  0.00000000E+00  0.00000000E+00
  0.00000000E+00  0.00000000E+00  0.00000000E+00  0.00000000E+00  0.00000000E+00
  0.00000000E+00  0.00000000E+00  3.02369787E+00  0.00000000E+00  0.00000000E+00
  3.02369787E+00  0.00000000E+00  0.00000000E+00  3.02369787E+00  0.00000000E+00
  0.00000000E+00  3.02369787E+00  0.00000000E+00  3.02369787E+00  0.00000000E+00
  0.00000000E+00  3.02369787E+00  0.00000000E+00  0.00000000E+00  3.02369787E+00
  0.00000000E+00  0.00000000E+00  3.02369787E+00  0.00000000E+00  0.00000000E+00
  0.00000000E+00 -3.02369787E+00  0.00000000E+00  0.00000000E+00 -3.02369787E+00
  0.00000000E+00  0.00000000E+00 -3.02369787E+00  0.00000000E+00  0.00000000E+00
 -3.02369787E+00  0.00000000E+00 -3.02369787E+00  0.00000000E+00  0.00000000E+00
 -3.02369787E+00  0.00000000E+00  0.00000000E+00 -3.02369787E+00  0.00000000E+00
  0.00000000E+00 -3.02369787E+00  0.00000000E+00  3.02369787E+00  0.00000000E+00
  0.00000000E+00  3.02369787E+00  0.00000000E+00  0.00000000E+00  3.02369787E+00
  0.00000000E+00  0.00000000E+00  3.02369787E+00  0.00000000E+00  0.00000000E+00
 -3.02369787E+00  0.00000000E+00  0.00000000E+00 -3.02369787E+00  0.00000000E+00
  0.00000000E+00 -3.02369787E+00  0.00000000E+00  0.00000000E+00 -3.02369787E+00
  0.00000000E+00  0.00000000E+00
Constraint Structure                       R   N=          21
  0.00000000E+00  0.00000000E+00  0.00000000E+00  0.00000000E+00  0.00000000E+00
  3.02369787E+00  0.00000000E+00  3.02369787E+00  0.00000000E+00  0.00000000E+00
  0.00000000E+00 -3.02369787E+00  0.00000000E+00 -3.02369787E+00  0.00000000E+00
  3.02369787E+00  0.00000000E+00  0.00000000E+00 -3.02369787E+00  0.00000000E+00
  0.00000000E+00
Num ILSW                                   I              100
ILSW                                       I   N=         100
           1           0           0           0           2           0
           0           0           0           0         402          -1
           0           0           0           0           0           0
           0           0           1           0           0           0
           1           1           0           0           0           0
           0           0      100000           0          -1           0
           0           0           0           0           0           0
           0           0           0           1           0           0
           0           0           1           0           0           0
           0           0           4          41           0           0
           0           0           5           0           0           0
           0           0           0           0           0           0
           0           0           0           0           0           0
           0           0           0           0           0           0
           0           0           0           0           0           0
           0           0           0           0           0           0
           0           0           0           0
Num RLSW                                   I               41
RLSW                                       R   N=          41
  8.00000000E-01  7.20000000E-01  1.00000000E+00  8.10000000E-01  2.00000000E-01
  0.00000000E+00  0.00000000E+00  1.00000000E+00  0.00000000E+00  0.00000000E+00
  0.00000000E+00  0.00000000E+00  1.00000000E+00  0.00000000E+00  0.00000000E+00
  0.00000000E+00  0.00000000E+00  1.00000000E+00  0.00000000E+00  0.00000000E+00
  0.00000000E+00  0.00000000E+00  1.00000000E+00  0.00000000E+00  0.00000000E+00
  0.00000000E+00  0.00000000E+00  1.00000000E+00  0.00000000E+00  0.00000000E+00
  0.00000000E+00  0.00000000E+00  1.00000000E+00  0.00000000E+00  0.00000000E+00
  0.00000000E+00  0.00000000E+00  0.00000000E+00  1.00000000E+00  1.00000000E+00
  0.00000000E+00
MxBond                                     I                6
NBond                                      I   N=           7
           6           1           1           1           1           1
           1
IBond                                      I   N=          42
           2           3           4           5           6           7
           1           0           0           0           0           0
           1           0           0           0           0           0
           1           0           0           0           0           0
           1           0           0           0           0           0
           1           0           0           0           0           0
           1           0           0           0           0           0
RBond                                      R   N=          42
  1.00000000E+00  1.00000000E+00  1.00000000E+00  1.00000000E+00  1.00000000E+00
  1.00000000E+00  1.00000000E+00  0.00000000E+00  0.00000000E+00  0.00000000E+00
  0.00000000E+00  0.00000000E+00  1.00000000E+00  0.00000000E+00  0.00000000E+00
  0.00000000E+00  0.00000000E+00  0.00000000E+00  1.00000000E+00  0.00000000E+00
  0.00000000E+00  0.00000000E+00  0.00000000E+00  0.00000000E+00  1.00000000E+00
  0.00000000E+00  0.00000000E+00  0.00000000E+00  0.00000000E+00  0.00000000E+00
  1.00000000E+00  0.00000000E+00  0.00000000E+00  0.00000000E+00  0.00000000E+00
  0.00000000E+00  1.00000000E+00  0.00000000E+00  0.00000000E+00  0.00000000E+00
  0.00000000E+00  0.00000000E+00
Virial Ratio                               R      2.004002280123488E+00
SCF Energy                                 R     -9.946745666813442E+02
Total Energy                               R     -9.946745666813442E+02
S**2                                       R      3.763854029692411E+00
S**2 after annihilation                    R      3.750095595642039E+00
RMS Density                                R      1.169262943370540E-09
Job Status                                 I                1
Nuclear derivative order                   I                0
External E-field                           R   N=          35
  0.00000000E+00  0.00000000E+00  0.00000000E+00  0.00000000E+00  0.00000000E+00
  0.00000000E+00  0.00000000E+00  0.00000000E+00  0.00000000E+00  0.00000000E+00
  0.00000000E+00  0.00000000E+00  0.00000000E+00  0.00000000E+00  0.00000000E+00
  0.00000000E+00  0.00000000E+00  0.00000000E+00  0.00000000E+00  0.00000000E+00
  0.00000000E+00  0.00000000E+00  0.00000000E+00  0.00000000E+00  0.00000000E+00
  0.00000000E+00  0.00000000E+00  0.00000000E+00  0.00000000E+00  0.00000000E+00
  0.00000000E+00  0.00000000E+00  0.00000000E+00  0.00000000E+00  0.00000000E+00
IOpCl                                      I                1
IROHF                                      I                0
Alpha Orbital Energies                     R   N=         102
 -9.01791883E+01 -2.56913933E+01 -2.56913501E+01 -2.56913500E+01 -2.56913500E+01
 -2.56912737E+01 -2.56912737E+01 -9.18585520E+00 -7.15185085E+00 -7.15185085E+00
 -7.15185085E+00 -2.27065844E+00 -2.16115020E+00 -2.16115020E+00 -2.16115019E+00
 -2.11729053E+00 -2.11729052E+00 -1.67166995E+00 -1.51473289E+00 -1.51473289E+00
 -1.51473289E+00 -1.42331123E+00 -1.42331123E+00 -1.42331123E+00 -1.37534134E+00
 -1.37534133E+00 -1.34992204E+00 -1.34992204E+00 -1.34992204E+00 -1.34458632E+00
 -1.34458632E+00 -1.34458631E+00 -1.31826172E+00 -1.31826172E+00 -1.31826171E+00
 -9.53216903E-01 -7.67090412E-01 -7.67090409E-01 -7.67090408E-01 -4.54385850E-01
 -3.93528965E-01 -3.93528964E-01 -3.93528964E-01 -3.80313782E-01 -3.80313781E-01
 -3.80313780E-01  4.45891916E-02  4.45891936E-02  2.54872367E-01  2.54872367E-01
  2.54872369E-01  3.35269349E-01  3.35269349E-01  3.35269351E-01  3.76447698E-01
  3.76802920E-01  3.76802923E-01  3.76802924E-01  4.49333481E-01  4.49333485E-01
  5.84852600E-01  5.84852600E-01  5.84852602E-01  6.58124269E-01  6.58124269E-01
  6.99902203E-01  6.99902204E-01  6.99902204E-01  8.37215142E-01  8.37215142E-01
  8.37215143E-01  8.53383227E-01  9.57506614E-01  9.57506618E-01  9.57506620E-01
  9.87477410E-01  9.87477414E-01  1.07759704E+00  1.07759704E+00  1.08956830E+00
  1.12696855E+00  1.12696855E+00  1.12696855E+00  1.14349222E+00  1.14349222E+00
  1.14349222E+00  1.17432160E+00  1.17432160E+00  1.17432161E+00  1.22452483E+00
  1.22452483E+00  1.22452484E+00  1.36511206E+00  1.36511206E+00  1.36511206E+00
  1.51093078E+00  1.65542310E+00  1.65542310E+00  1.65542310E+00  1.71950444E+00
  2.18046425E+00  2.18046426E+00
Beta Orbital Energies                      R   N=         102
 -9.01798452E+01 -2.56729308E+01 -2.56728748E+01 -2.56728748E+01 -2.56728748E+01
 -2.56727990E+01 -2.56727990E+01 -9.18665868E+00 -7.15280775E+00 -7.15280775E+00
 -7.15280775E+00 -2.24243786E+00 -2.11991246E+00 -2.11991246E+00 -2.11991245E+00
 -2.07030567E+00 -2.07030567E+00 -1.65186156E+00 -1.49147538E+00 -1.49147538E+00
 -1.49147537E+00 -1.36009859E+00 -1.36009859E+00 -1.36009859E+00 -1.35654956E+00
 -1.35654956E+00 -1.27583053E+00 -1.27583053E+00 -1.27583053E+00 -1.26832435E+00
 -1.26832435E+00 -1.26832434E+00 -1.19264592E+00 -1.19264592E+00 -1.19264592E+00
 -9.38901418E-01 -7.53980393E-01 -7.53980390E-01 -7.53980389E-01 -4.50598181E-01
 -3.84967555E-01 -3.84967555E-01 -3.84967554E-01 -3.69236916E-01 -3.69236916E-01
 -3.69236915E-01  4.95909093E-02  4.95909112E-02  2.79171183E-01  2.79171184E-01
  2.79171186E-01  3.66083389E-01  3.66083390E-01  3.66083391E-01  3.84337546E-01
  3.92254753E-01  3.92254755E-01  3.92254756E-01  4.61508599E-01  4.61508602E-01
  6.13445333E-01  6.13445333E-01  6.13445336E-01  6.76651950E-01  6.76651951E-01
  7.20265442E-01  7.20265443E-01  7.20265443E-01  8.55218021E-01  8.55218022E-01
  8.55218022E-01  8.80245599E-01  9.85443804E-01  9.85443808E-01  9.85443809E-01
  1.01627371E+00  1.01627371E+00  1.10050526E+00  1.10050526E+00  1.11864885E+00
  1.15278487E+00  1.15278487E+00  1.15278488E+00  1.16100240E+00  1.16100240E+00
  1.16100240E+00  1.19322496E+00  1.19322496E+00  1.19322496E+00  1.23794293E+00
  1.23794293E+00  1.23794293E+00  1.38237669E+00  1.38237669E+00  1.38237670E+00
  1.52320133E+00  1.67019119E+00  1.67019119E+00  1.67019119E+00  1.73894507E+00
  2.19379737E+00  2.19379737E+00
Alpha MO coefficients                      R   N=       10404
  9.96557088E-01  1.28680318E-02  9.32226795E-16  4.43666283E-15  2.85078323E-16
 -5.70958724E-03  1.87542202E-15 -3.54845824E-15 -2.93802930E-16 -1.18646576E-03
  1.46038666E-15  4.73496260E-15 -1.70460070E-15  2.58048549E-14 -2.49347229E-17
  1.68473003E-17  2.52641314E-14 -3.86904708E-17 -2.80753033E-05 -5.23434354E-04
  1.41291256E-16  4.73758676E-16  1.24769587E-04  1.33820455E-03 -6.09946543E-16
 -1.15154731E-15 -1.03214378E-03  5.41224734E-04  3.12053728E-16  3.92191950E-16
 -6.33381473E-17 -7.31957750E-16 -2.80753033E-05 -5.23434354E-04  4.27619363E-17
  1.24769587E-04 -7.05499862E-17  1.33820455E-03 -1.28984343E-16 -1.03214378E-03
  3.64096020E-16 -2.70612367E-04  3.23831746E-16  2.43543088E-17 -4.68714369E-04
  1.15585984E-16 -2.80753033E-05 -5.23434354E-04  1.18595371E-16  4.85103181E-16
 -1.24769587E-04  1.33820455E-03 -3.86348337E-16 -1.20193613E-15  1.03214378E-03
  5.41224734E-04  1.14904004E-16 -4.37679441E-16  3.02523234E-17 -1.36500446E-16
 -2.80753033E-05 -5.23434354E-04 -5.99487647E-17 -1.24769587E-04 -7.30598596E-17
  1.33820455E-03 -1.80923564E-16  1.03214378E-03  3.31615079E-16 -2.70612367E-04
 -4.06185197E-16  3.91160013E-17 -4.68714369E-04  5.40331556E-17 -2.80753033E-05
 -5.23434354E-04  1.24769587E-04  5.24219402E-16 -9.76142336E-17  1.33820455E-03
 -1.03214378E-03 -1.16140010E-15  4.75749884E-16 -2.70612367E-04 -4.81388552E-17
  5.74771613E-16  4.68714369E-04  3.23611960E-16 -2.80753033E-05 -5.23434354E-04
 -1.24769587E-04  4.43498196E-16  1.03431426E-17  1.33820455E-03  1.03214378E-03
 -1.22593311E-15  1.89324072E-16 -2.70612367E-04 -1.63959393E-16 -3.79361412E-16
  4.68714369E-04 -6.23921984E-16  4.20814095E-05 -1.25285937E-03  4.80161111E-12
  5.08842234E-12  5.46202331E-12 -2.16336089E-03 -3.01717579E-11 -3.19685924E-11
 -3.43220076E-11  1.83343606E-02 -9.39540969E-11 -9.95237652E-11 -1.06885031E-10
 -8.48128110E-08  1.52631731E-16  1.85300148E-16 -8.47160843E-08  5.44653435E-16
  4.06189613E-01  1.21485488E-02 -1.60792206E-12 -1.70142008E-12 -5.48255897E-04
 -8.53277637E-03  1.31505203E-11  1.39293957E-11  2.08905404E-03 -2.11169171E-04
 -2.18923149E-12 -2.32112092E-12 -1.03323073E-08 -3.71648717E-16  4.06244583E-01
  1.21500368E-02 -1.60762297E-12 -5.48348359E-04 -1.83056918E-12 -8.53332393E-03
  1.31503298E-11  2.08923219E-03  1.49613759E-11  1.05614152E-04 -2.52082740E-16
 -2.48963396E-12  1.82936662E-04 -2.18815022E-12  4.06189634E-01  1.21485494E-02
 -1.60804969E-12 -1.70160385E-12  5.48255928E-04 -8.53277670E-03  1.31506125E-11
  1.39300099E-11 -2.08905411E-03 -2.11169183E-04  2.18960043E-12  2.32180344E-12
 -1.03323075E-08  4.66781278E-17  4.06244602E-01  1.21500374E-02 -1.60775170E-12
  5.48348387E-04 -1.83002780E-12 -8.53332423E-03  1.31506319E-11 -2.08923225E-03
  1.49610867E-11  1.05614158E-04 -1.68649450E-17  2.48896883E-12  1.82936672E-04
  2.19014791E-12  4.06204372E-01  1.21489483E-02 -5.48280723E-04 -1.70151508E-12
 -1.83022691E-12 -8.53292340E-03  2.08910187E-03  1.39303116E-11  1.49612862E-11
  1.05581174E-04 -2.48951762E-12  3.02860865E-17 -1.82900206E-04 -2.32131285E-12
  4.06204391E-01  1.21489488E-02  5.48280749E-04 -1.70113303E-12 -1.83017099E-12
 -8.53292368E-03 -2.08910193E-03  1.39297662E-11  1.49610300E-11  1.05581179E-04
  2.48975644E-12 -1.21644372E-16 -1.82900215E-04  2.32169307E-12  5.75902314E-13
 -1.71431322E-11  2.59431625E-09 -3.71720422E-04 -5.66755866E-10 -2.96005716E-11
 -1.63021306E-08  2.33581162E-03  3.56137329E-09  2.50865265E-10 -5.07661346E-08
  7.27390304E-03  1.10904022E-08  1.17143196E-11  1.32386087E-15  1.34201997E-15
  2.05120167E-11  1.24258182E-15  1.08141307E-06  3.08732681E-08 -8.69286752E-10
  1.24553597E-04 -1.58234811E-09 -1.70424164E-08  7.10624482E-09 -1.01820097E-03
  3.75786950E-09 -6.51778966E-10 -1.18278390E-09  1.69472359E-04  2.50121396E-12
 -1.31515139E-16  7.03519674E-01  2.00829454E-02 -8.69286718E-10 -1.02935861E-03
  1.89903666E-10 -1.10801250E-02  7.10624466E-09  2.43911639E-03 -1.55243460E-09
  2.11536346E-04 -7.84547062E-17  2.58392449E-10  3.66391698E-04 -1.18278551E-09
 -1.06387678E-06 -3.03670075E-08 -8.69285957E-10  1.24553597E-04 -1.55654475E-09
  1.67449543E-08  7.10624396E-09 -1.01820097E-03  3.67989154E-09  6.38325217E-10
  1.18278475E-09 -1.69472359E-04  2.50177394E-12  8.80571907E-17 -7.03519676E-01
 -2.00829454E-02 -8.69287415E-10 -1.02935862E-03  1.89905716E-10  1.10801249E-02
  7.10624449E-09  2.43911637E-03 -1.55243473E-09 -2.11536351E-04  4.83480632E-18
 -2.58391743E-10 -3.66391707E-04  1.18278289E-09 -4.90119402E-06 -1.39908630E-07
  7.17112469E-09  1.24553597E-04  1.89905527E-10  7.71813150E-08 -1.69839576E-08
 -1.01820097E-03 -1.55243528E-09 -1.47080752E-09  2.58392593E-10 -6.41684441E-17
  2.55249028E-09  1.69472359E-04  4.91883599E-06  1.40417754E-07  7.19710545E-09
  1.24553597E-04  1.89904538E-10 -7.74798319E-08 -1.70622762E-08 -1.01820097E-03
 -1.55243420E-09  1.48190714E-09 -2.58390940E-10  5.72739215E-16 -2.56176268E-09
 -1.69472359E-04  5.43510453E-13 -1.61840117E-11 -3.71720423E-04 -2.59431755E-09
  6.74548714E-10 -2.79454702E-11  2.33581162E-03  1.63021380E-08 -4.23872240E-09
  2.36844216E-10  7.27390305E-03  5.07661531E-08 -1.31997192E-08  1.01998055E-11
  1.29850451E-15  5.55520234E-16 -1.90988526E-11 -8.57973481E-16 -1.26861231E-06
 -3.62112772E-08  1.24553597E-04  8.69286798E-10  1.85616093E-09  1.99686770E-08
 -1.01820097E-03 -7.10624680E-09 -4.39014059E-09  7.61667714E-10  1.69472359E-04
  1.18278389E-09 -2.32996190E-12  6.71345748E-16  4.91839962E-06  1.40405061E-07
  1.24553597E-04 -7.19647422E-09 -2.26022591E-10 -7.74720627E-08 -1.01820097E-03
  1.70602717E-08  1.84769612E-09  1.48153806E-09 -7.59133108E-16 -3.07535191E-10
  2.56161469E-09  1.69472359E-04  1.28469696E-06  3.66764790E-08  1.24553597E-04
  8.69287072E-10  1.87972811E-09 -2.02448185E-08 -1.01820097E-03 -7.10624686E-09
 -4.46223228E-09 -7.73806079E-10 -1.69472359E-04 -1.18278359E-09 -2.32841245E-12
  4.65519398E-16 -4.90163428E-06 -1.39921435E-07  1.24553597E-04 -7.17176148E-09
 -2.26023570E-10  7.71891454E-08 -1.01820097E-03  1.69859761E-08  1.84769716E-09
 -1.47117871E-09 -9.72504657E-16  3.07535922E-10 -2.55264068E-09 -1.69472359E-04
  7.03519674E-01  2.00829454E-02 -1.02935862E-03  8.69290066E-10 -2.26024861E-10
 -1.10801250E-02  2.43911639E-03 -7.10624808E-09  1.84769757E-09  2.11536346E-04
 -3.07536292E-10  1.40746793E-16 -3.66391699E-04  1.18278115E-09 -7.03519675E-01
 -2.00829455E-02 -1.02935862E-03  8.69282662E-10 -2.26022432E-10  1.10801249E-02
  2.43911638E-03 -7.10624551E-09  1.84769636E-09 -2.11536351E-04  3.07537363E-10
 -5.65923274E-16  3.66391706E-04 -1.18278828E-09  6.18334438E-13 -1.84090037E-11
 -6.74552661E-10  5.66752536E-10 -3.71720423E-04 -3.17868722E-11  4.23874584E-09
 -3.56134461E-09  2.33581162E-03  2.69399620E-10  1.31997950E-08 -1.10903163E-08
  7.27390305E-03 -2.42974754E-11 -6.35453595E-17 -2.49312910E-15 -1.60479740E-13
 -4.78518588E-16  7.03519674E-01  2.00829455E-02  2.26025326E-10 -1.89900387E-10
 -1.02935862E-03 -1.10801250E-02 -1.84770808E-09  1.55242232E-09  2.43911639E-03
 -4.23072692E-04  3.07536230E-10 -2.58394450E-10  9.38945547E-14  2.66218687E-16
 -1.06329991E-06 -3.03502159E-08  2.26025014E-10  1.55571268E-09  1.24553597E-04
  1.67346276E-08 -1.84770763E-09 -3.67724104E-09 -1.01820098E-03 -3.21173684E-10
 -1.35675246E-16  1.69472359E-04 -5.51174484E-10  3.07537940E-10 -7.03519675E-01
 -2.00829455E-02  2.26024081E-10 -1.89906806E-10 -1.02935862E-03  1.10801249E-02
 -1.84770681E-09  1.55242380E-09  2.43911638E-03  4.23072701E-04 -3.07538955E-10
  2.58385736E-10 -1.31748005E-13  2.17904254E-16  1.08197212E-06  3.08895570E-08
  2.26024565E-10  1.58315356E-09  1.24553597E-04 -1.70524743E-08 -1.84770724E-09
 -3.76046122E-09 -1.01820098E-03  3.23873325E-10 -5.41589285E-16 -1.69472359E-04
  5.66077046E-10 -3.07538364E-10  1.28592255E-06  3.67117119E-08 -1.88154833E-09
 -1.89904066E-10  1.24553597E-04 -2.02650323E-08  4.46757614E-09  1.55242335E-09
 -1.01820098E-03  3.85156859E-10  1.69472359E-04  3.30229405E-16 -6.72265404E-10
 -2.58389667E-10 -1.26740169E-06 -3.61764686E-08 -1.85436201E-09 -1.89903397E-10
  1.24553597E-04  1.99486949E-08  4.38484732E-09  1.55242222E-09 -1.01820098E-03
 -3.82582259E-10 -1.69472359E-04 -1.32112499E-16  6.57501048E-10  2.58389603E-10
 -2.22275414E-09  6.61769154E-08  2.43751267E-12 -4.15597003E-12  1.67259312E-12
  1.14270732E-07 -1.53196552E-11  2.61142395E-11 -1.05138453E-11 -9.68434502E-07
 -4.77018725E-11  8.13117195E-11 -3.27525645E-11 -8.01488435E-04 -9.00328416E-17
  5.48676262E-16 -1.93670184E-03  1.70113579E-16 -2.19661466E-01 -5.94634083E-03
 -8.17993633E-13  1.39161231E-12  3.69478683E-04  2.18830190E-03  6.67768672E-12
 -1.13818183E-11 -7.11942592E-04  2.62536446E-04 -1.11145357E-12  1.89669453E-12
 -2.36209305E-04  4.60397653E-16  5.69427726E-01  1.54144618E-02 -8.17528812E-13
 -9.57824038E-04 -5.61407891E-13 -5.67187677E-03  6.67755297E-12  1.84541993E-03
  4.58495378E-12  3.69278870E-04 -2.86379441E-16 -7.63077808E-13  5.72714169E-04
 -1.11207626E-12 -2.19661460E-01 -5.94634065E-03 -8.17353951E-13  1.39083543E-12
 -3.69478674E-04  2.18830180E-03  6.67777361E-12 -1.13813958E-11  7.11942570E-04
  2.62536442E-04  1.11125920E-12 -1.89542993E-12 -2.36209305E-04 -1.49132190E-16
  5.69427711E-01  1.54144614E-02 -8.17155263E-13  9.57824015E-04 -5.61498677E-13
 -5.67187652E-03  6.67785453E-12 -1.84541988E-03  4.58504264E-12  3.69278865E-04
 -6.31549950E-16  7.62726779E-13  5.72714161E-04  1.11209059E-12 -3.49830629E-01
 -9.47004617E-03  5.88432239E-04  1.38996467E-12 -5.60436616E-13  3.48492703E-03
 -1.13380839E-03 -1.13807235E-11  4.58480988E-12 -3.84657354E-04 -7.62657517E-13
  1.17800444E-16  2.60723066E-04  1.89629251E-12 -3.49830620E-01 -9.47004591E-03
 -5.88432226E-04  1.38961677E-12 -5.60490465E-13  3.48492689E-03  1.13380836E-03
 -1.13806530E-11  4.58443039E-12 -3.84657351E-04  7.62101736E-13 -3.00953917E-16
  2.60723061E-04 -1.89613558E-12  9.23007478E-10 -2.74802350E-08  2.96610315E-12
  5.28546198E-13 -3.97010740E-12 -4.74513915E-08 -1.86396824E-11 -3.32202825E-12
  2.49490741E-11  4.02146392E-07 -5.80426242E-11 -1.03460181E-11  7.76925988E-11