 Entering Gaussian System, Link 0=/opt/g09E01ES64L/g09/g09
 Initial command:
 /opt/g09E01ES64L/g09/l1.exe "/home/scratch/Gau-22670.inp" -scrdir="/home/scratch/"
 Entering Link 1 = /opt/g09E01ES64L/g09/l1.exe PID=     22671.
  
 Copyright (c) 1988,1990,1992,1993,1995,1998,2003,2009,2015,
            Gaussian, Inc.  All Rights Reserved.
  
 This is part of the Gaussian(R) 09 program.  It is based on
 the Gaussian(R) 03 system (copyright 2003, Gaussian, Inc.),
 the Gaussian(R) 98 system (copyright 1998, Gaussian, Inc.),
 the Gaussian(R) 94 system (copyright 1995, Gaussian, Inc.),
 the Gaussian 92(TM) system (copyright 1992, Gaussian, Inc.),
 the Gaussian 90(TM) system (copyright 1990, Gaussian, Inc.),
 the Gaussian 88(TM) system (copyright 1988, Gaussian, Inc.),
 the Gaussian 86(TM) system (copyright 1986, Carnegie Mellon
 University), and the Gaussian 82(TM) system (copyright 1983,
 Carnegie Mellon University). Gaussian is a federally registered
 trademark of Gaussian, Inc.
  
 This software contains proprietary and confidential information,
 including trade secrets, belonging to Gaussian, Inc.
  
 This software is provided under written license and may be
 used, copied, transmitted, or stored only in accord with that
 written license.
  
 The following legend is applicable only to US Government
 contracts under FAR:
  
                    RESTRICTED RIGHTS LEGEND
  
 Use, reproduction and disclosure by the US Government is
 subject to restrictions as set forth in subparagraphs (a)
 and (c) of the Commercial Computer Software - Restricted
 Rights clause in FAR 52.227-19.
  
 Gaussian, Inc.
 340 Quinnipiac St., Bldg. 40, Wallingford CT 06492
  
  
 ---------------------------------------------------------------
 Warning -- This program may not be used in any manner that
 competes with the business of Gaussian, Inc. or will provide
 assistance to any competitor of Gaussian, Inc.  The licensee
 of this program is prohibited from giving any competitor of
 Gaussian, Inc. access to this program.  By using this program,
 the user acknowledges that Gaussian, Inc. is engaged in the
 business of creating and licensing software in the field of
 computational chemistry and represents and warrants to the
 licensee that it is not a competitor of Gaussian, Inc. and that
 it will not use this program in any manner prohibited above.
 ---------------------------------------------------------------
  

 Cite this work as:
 Gaussian 09, Revision E.01,
 M. J. Frisch, G. W. Trucks, H. B. Schlegel, G. E. Scuseria, 
 M. A. Robb, J. R. Cheeseman, G. Scalmani, V. Barone, B. Mennucci, 
 G. A. Petersson, H. Nakatsuji, M. Caricato, X. Li, H. P. Hratchian, 
 A. F. Izmaylov, J. Bloino, G. Zheng, J. L. Sonnenberg, M. Hada, 
 M. Ehara, K. Toyota, R. Fukuda, J. Hasegawa, M. Ishida, T. Nakajima, 
 Y. Honda, O. Kitao, H. Nakai, T. Vreven, J. A. Montgomery, Jr., 
 J. E. Peralta, F. Ogliaro, M. Bearpark, J. J. Heyd, E. Brothers, 
 K. N. Kudin, V. N. Staroverov, T. Keith, R. Kobayashi, J. Normand, 
 K. Raghavachari, A. Rendell, J. C. Burant, S. S. Iyengar, J. Tomasi, 
 M. Cossi, N. Rega, J. M. Millam, M. Klene, J. E. Knox, J. B. Cross, 
 V. Bakken, C. Adamo, J. Jaramillo, R. Gomperts, R. E. Stratmann, 
 O. Yazyev, A. J. Austin, R. Cammi, C. Pomelli, J. W. Ochterski, 
 R. L. Martin, K. Morokuma, V. G. Zakrzewski, G. A. Voth, 
 P. Salvador, J. J. Dannenberg, S. Dapprich, A. D. Daniels, 
 O. Farkas, J. B. Foresman, J. V. Ortiz, J. Cioslowski, 
 and D. J. Fox, Gaussian, Inc., Wallingford CT, 2013.
 
 ******************************************
 Gaussian 09:  ES64L-G09RevE.01 30-Nov-2015
                 4-Feb-2021 
 ******************************************
 %chk=SF6_N+2_closed.chk
 %mem=20GB
 %nprocshared=16
 Will use up to   16 processors via shared memory.
 -------------------------------------
 # B3LYP/6-31g(d) NoSymm 5D Stable=Opt
 -------------------------------------
 1/38=1/1;
 2/12=2,15=1,17=6,18=5,40=1/2;
 3/5=1,6=6,7=1,8=1,11=2,16=1,25=1,30=1,74=-5/1,2,3;
 4//1;
 5/5=2,38=5/2;
 6/7=2,8=2,9=2,10=2,28=1/1;
 8/6=1,10=90,11=11/1;
 9/8=-3,42=1,46=1/14;
 5/5=2,8=3,17=40,38=5/8(-2);
 6/7=2,8=2,9=2,10=2,28=1/1;
 99/5=1,9=1/99;
 ------------------------------------------------------------
 Single point of SF6^-2 at theUB3LYP/6-31G(d) level of theory
 ------------------------------------------------------------
 Symbolic Z-matrix:
 Charge = -2 Multiplicity = 1
 S                     0.        0.        0. 
 F                     0.        0.        1.60007 
 F                     0.        1.60007   0. 
 F                     0.        0.       -1.60007 
 F                     0.       -1.60007   0. 
 F                     1.60007   0.        0. 
 F                    -1.60007   0.        0. 
 
                          Input orientation:                          
 ---------------------------------------------------------------------
 Center     Atomic      Atomic             Coordinates (Angstroms)
 Number     Number       Type             X           Y           Z
 ---------------------------------------------------------------------
      1         16           0        0.000000    0.000000    0.000000
      2          9           0        0.000000    0.000000    1.600072
      3          9           0        0.000000    1.600072    0.000000
      4          9           0        0.000000    0.000000   -1.600072
      5          9           0        0.000000   -1.600072    0.000000
      6          9           0        1.600072    0.000000    0.000000
      7          9           0       -1.600072    0.000000    0.000000
 ---------------------------------------------------------------------
                    Distance matrix (angstroms):
                    1          2          3          4          5
     1  S    0.000000
     2  F    1.600072   0.000000
     3  F    1.600072   2.262844   0.000000
     4  F    1.600072   3.200144   2.262844   0.000000
     5  F    1.600072   2.262844   3.200144   2.262844   0.000000
     6  F    1.600072   2.262844   2.262844   2.262844   2.262844
     7  F    1.600072   2.262844   2.262844   2.262844   2.262844
                    6          7
     6  F    0.000000
     7  F    3.200144   0.000000
 Symmetry turned off by external request.
 Stoichiometry    F6S(2-)
 Framework group  OH[O(S),3C4(F.F)]
 Deg. of freedom     1
 Full point group                 OH      NOp  48
 Rotational constants (GHZ):      2.5975329      2.5975329      2.5975329
 Standard basis: 6-31G(d) (5D, 7F)
   102 basis functions,   220 primitive gaussians,   109 cartesian basis functions
    36 alpha electrons       36 beta electrons
       nuclear repulsion energy       553.2324529864 Hartrees.
 NAtoms=    7 NActive=    7 NUniq=    7 SFac= 1.00D+00 NAtFMM=   60 NAOKFM=F Big=F
 Integral buffers will be    131072 words long.
 Raffenetti 2 integral format.
 Two-electron integral symmetry is turned off.
 One-electron integrals computed using PRISM.
 NBasis=   102 RedAO= T EigKep=  1.70D-02  NBF=   102
 NBsUse=   102 1.00D-06 EigRej= -1.00D+00 NBFU=   102
 ExpMin= 1.17D-01 ExpMax= 2.19D+04 ExpMxC= 3.30D+03 IAcc=1 IRadAn=         1 AccDes= 0.00D+00
 Harris functional with IExCor=  402 and IRadAn=       1 diagonalized for initial guess.
 HarFok:  IExCor=  402 AccDes= 0.00D+00 IRadAn=         1 IDoV= 1 UseB2=F ITyADJ=14
 ICtDFT=  3500011 ScaDFX=  1.000000  1.000000  1.000000  1.000000
 FoFCou: FMM=F IPFlag=           0 FMFlag=      100000 FMFlg1=           0
         NFxFlg=           0 DoJE=T BraDBF=F KetDBF=T FulRan=T
         wScrn=  0.000000 ICntrl=     500 IOpCl=  0 I1Cent=   200000004 NGrid=           0
         NMat0=    1 NMatS0=      1 NMatT0=    0 NMatD0=    1 NMtDS0=    0 NMtDT0=    0
 Symmetry not used in FoFCou.
 Keep R1 ints in memory in canonical form, NReq=14787380.
 Requested convergence on RMS density matrix=1.00D-08 within 128 cycles.
 Requested convergence on MAX density matrix=1.00D-06.
 Requested convergence on             energy=1.00D-06.
 No special actions if energy rises.
 Integral accuracy reduced to 1.0D-05 until final iterations.
 Initial convergence to 1.0D-05 achieved.  Increase integral accuracy.
 SCF Done:  E(RB3LYP) =  -996.741491832     A.U. after   11 cycles
            NFock= 11  Conv=0.80D-08     -V/T= 1.9995

 **********************************************************************

            Population analysis using the SCF density.

 **********************************************************************

 Alpha  occ. eigenvalues --  -88.52869 -24.16226 -24.16221 -24.16221 -24.16221
 Alpha  occ. eigenvalues --  -24.16213 -24.16213  -7.57626  -5.53625  -5.53625
 Alpha  occ. eigenvalues --   -5.53625  -0.79472  -0.69666  -0.69666  -0.69666
 Alpha  occ. eigenvalues --   -0.65712  -0.65712  -0.24423  -0.08976  -0.08976
 Alpha  occ. eigenvalues --   -0.08976   0.00971   0.00971   0.00971   0.03931
 Alpha  occ. eigenvalues --    0.03931   0.08443   0.08443   0.08443   0.09111
 Alpha  occ. eigenvalues --    0.09111   0.09111   0.12998   0.12998   0.12998
 Alpha  occ. eigenvalues --    0.44586
 Alpha virt. eigenvalues --    0.68844   0.68844   0.68844   0.76727   0.82495
 Alpha virt. eigenvalues --    0.82495   0.82495   1.10325   1.10325   1.10325
 Alpha virt. eigenvalues --    1.51838   1.51838   1.58704   1.58704   1.58704
 Alpha virt. eigenvalues --    1.63469   1.63469   1.63469   1.64321   1.67607
 Alpha virt. eigenvalues --    1.67607   1.67607   1.70424   1.70424   1.87330
 Alpha virt. eigenvalues --    1.87330   1.87330   1.98554   1.98554   1.98554
 Alpha virt. eigenvalues --    2.01796   2.01796   2.17432   2.17432   2.17432
 Alpha virt. eigenvalues --    2.20764   2.31250   2.31250   2.31250   2.34164
 Alpha virt. eigenvalues --    2.34164   2.43538   2.43538   2.44479   2.49791
 Alpha virt. eigenvalues --    2.49791   2.49791   2.52226   2.52226   2.52226
 Alpha virt. eigenvalues --    2.57083   2.57083   2.57083   2.59968   2.59968
 Alpha virt. eigenvalues --    2.59968   2.66650   2.66650   2.66650   2.86914
 Alpha virt. eigenvalues --    3.06528   3.08907   3.08907   3.08907   3.60207
 Alpha virt. eigenvalues --    3.60207
          Condensed to atoms (all electrons):
               1          2          3          4          5          6
     1  S   16.309223  -0.249725  -0.249725  -0.249725  -0.249725  -0.249725
     2  F   -0.249725   9.745553   0.008152   0.003086   0.008152   0.008152
     3  F   -0.249725   0.008152   9.745553   0.008152   0.003086   0.008152
     4  F   -0.249725   0.003086   0.008152   9.745553   0.008152   0.008152
     5  F   -0.249725   0.008152   0.003086   0.008152   9.745553   0.008152
     6  F   -0.249725   0.008152   0.008152   0.008152   0.008152   9.745553
     7  F   -0.249725   0.008152   0.008152   0.008152   0.008152   0.003086
               7
     1  S   -0.249725
     2  F    0.008152
     3  F    0.008152
     4  F    0.008152
     5  F    0.008152
     6  F    0.003086
     7  F    9.745553
 Mulliken charges:
               1
     1  S    1.189130
     2  F   -0.531522
     3  F   -0.531522
     4  F   -0.531522
     5  F   -0.531522
     6  F   -0.531522
     7  F   -0.531522
 Sum of Mulliken charges =  -2.00000
 Mulliken charges with hydrogens summed into heavy atoms:
               1
     1  S    1.189130
     2  F   -0.531522
     3  F   -0.531522
     4  F   -0.531522
     5  F   -0.531522
     6  F   -0.531522
     7  F   -0.531522
 Electronic spatial extent (au):  <R**2>=            614.3121
 Charge=             -2.0000 electrons
 Dipole moment (field-independent basis, Debye):
    X=              0.0000    Y=              0.0000    Z=             -0.0000  Tot=              0.0000
 Quadrupole moment (field-independent basis, Debye-Ang):
   XX=            -54.0720   YY=            -54.0720   ZZ=            -54.0720
   XY=             -0.0000   XZ=             -0.0000   YZ=              0.0000
 Traceless Quadrupole moment (field-independent basis, Debye-Ang):
   XX=             -0.0000   YY=              0.0000   ZZ=             -0.0000
   XY=             -0.0000   XZ=             -0.0000   YZ=              0.0000
 Octapole moment (field-independent basis, Debye-Ang**2):
  XXX=              0.0000  YYY=              0.0000  ZZZ=             -0.0000  XYY=              0.0000
  XXY=             -0.0000  XXZ=              0.0000  XZZ=              0.0000  YZZ=             -0.0000
  YYZ=              0.0000  XYZ=              0.0000
 Hexadecapole moment (field-independent basis, Debye-Ang**3):
 XXXX=           -221.1555 YYYY=           -221.1555 ZZZZ=           -221.1555 XXXY=             -0.0000
 XXXZ=             -0.0000 YYYX=             -0.0000 YYYZ=              0.0000 ZZZX=             -0.0000
 ZZZY=              0.0000 XXYY=            -62.6497 XXZZ=            -62.6497 YYZZ=            -62.6497
 XXYZ=             -0.0000 YYXZ=             -0.0000 ZZXY=             -0.0000
 N-N= 5.532324529864D+02 E-N=-3.523482053915D+03  KE= 9.972229255412D+02
 DoSCS=F DFT=T ScalE2(SS,OS)=  1.000000  1.000000
 Range of M.O.s used for correlation:     1   102
 NBasis=   102 NAE=    36 NBE=    36 NFC=     0 NFV=     0
 NROrb=    102 NOA=    36 NOB=    36 NVA=    66 NVB=    66
 Keep R1 and R2 ints in memory in canonical form, NReq=62544063.
    24 initial guesses have been made.
 Convergence on wavefunction:    0.001000000000000
 Iteration     1 Dimension    24 NMult     0 NNew     24
 CISAX will form    24 AO SS matrices at one time.
 New state      1 was old state      6
 Iteration     2 Dimension    48 NMult    24 NNew     24
 Iteration     3 Dimension    54 NMult    48 NNew      6
 Iteration     4 Dimension    60 NMult    54 NNew      6
 Iteration     5 Dimension    66 NMult    60 NNew      6
 New state      1 was old state      2
 Iteration     6 Dimension    72 NMult    66 NNew      6
 Iteration     7 Dimension    78 NMult    72 NNew      6
 Iteration     8 Dimension    84 NMult    78 NNew      6
 Iteration     9 Dimension    85 NMult    84 NNew      1
 ***********************************************************************
 Stability analysis using <AA,BB:AA,BB> singles matrix:
 ***********************************************************************

 Eigenvectors of the stability matrix:
 
 Excited state symmetry could not be determined.
 Eigenvector   1:      Triplet-?Sym  Eigenvalue= 0.1158495  <S**2>=2.000
      36 -> 37         0.30917
      36 -> 38         0.60654
      36 -> 42        -0.13912
 
 Excited state symmetry could not be determined.
 Eigenvector   2:      Triplet-?Sym  Eigenvalue= 0.1158495  <S**2>=2.000
      36 -> 37        -0.27777
      36 -> 38         0.22461
      36 -> 39         0.58588
      36 -> 43        -0.12542
 
 Excited state symmetry could not be determined.
 Eigenvector   3:      Triplet-?Sym  Eigenvalue= 0.1158495  <S**2>=2.000
      36 -> 37         0.54601
      36 -> 38        -0.22918
      36 -> 39         0.34672
      36 -> 41        -0.12210
 
 Excited state symmetry could not be determined.
 Eigenvector   4:      Singlet-?Sym  Eigenvalue= 0.2559275  <S**2>=0.000
      36 -> 37         0.52986
      36 -> 38        -0.21572
      36 -> 39        -0.26347
      36 -> 41         0.25531
      36 -> 42        -0.10616
 
 Excited state symmetry could not be determined.
 Eigenvector   5:      Singlet-?Sym  Eigenvalue= 0.2559275  <S**2>=0.000
      36 -> 37         0.24416
      36 -> 38         0.58038
      36 -> 41         0.10793
      36 -> 42         0.27220
 
 Excited state symmetry could not be determined.
 Eigenvector   6:      Singlet-?Sym  Eigenvalue= 0.2559275  <S**2>=0.000
      36 -> 37         0.23736
      36 -> 38        -0.11545
      36 -> 39         0.57187
      36 -> 43         0.27616
 SavETr:  write IOETrn=   770 NScale= 10 NData=  16 NLR=1 NState=    6 LETran=     118.
 The wavefunction is stable under the perturbations considered.
 The wavefunction is already stable.

 **********************************************************************

            Population analysis using the SCF density.

 **********************************************************************

 Alpha  occ. eigenvalues --  -88.52869 -24.16226 -24.16221 -24.16221 -24.16221
 Alpha  occ. eigenvalues --  -24.16213 -24.16213  -7.57626  -5.53625  -5.53625
 Alpha  occ. eigenvalues --   -5.53625  -0.79472  -0.69666  -0.69666  -0.69666
 Alpha  occ. eigenvalues --   -0.65712  -0.65712  -0.24423  -0.08976  -0.08976
 Alpha  occ. eigenvalues --   -0.08976   0.00971   0.00971   0.00971   0.03931
 Alpha  occ. eigenvalues --    0.03931   0.08443   0.08443   0.08443   0.09111
 Alpha  occ. eigenvalues --    0.09111   0.09111   0.12998   0.12998   0.12998
 Alpha  occ. eigenvalues --    0.44586
 Alpha virt. eigenvalues --    0.68844   0.68844   0.68844   0.76727   0.82495
 Alpha virt. eigenvalues --    0.82495   0.82495   1.10325   1.10325   1.10325
 Alpha virt. eigenvalues --    1.51838   1.51838   1.58704   1.58704   1.58704
 Alpha virt. eigenvalues --    1.63469   1.63469   1.63469   1.64321   1.67607
 Alpha virt. eigenvalues --    1.67607   1.67607   1.70424   1.70424   1.87330
 Alpha virt. eigenvalues --    1.87330   1.87330   1.98554   1.98554   1.98554
 Alpha virt. eigenvalues --    2.01796   2.01796   2.17432   2.17432   2.17432
 Alpha virt. eigenvalues --    2.20764   2.31250   2.31250   2.31250   2.34164
 Alpha virt. eigenvalues --    2.34164   2.43538   2.43538   2.44479   2.49791
 Alpha virt. eigenvalues --    2.49791   2.49791   2.52226   2.52226   2.52226
 Alpha virt. eigenvalues --    2.57083   2.57083   2.57083   2.59968   2.59968
 Alpha virt. eigenvalues --    2.59968   2.66650   2.66650   2.66650   2.86914
 Alpha virt. eigenvalues --    3.06528   3.08907   3.08907   3.08907   3.60207
 Alpha virt. eigenvalues --    3.60207
          Condensed to atoms (all electrons):
               1          2          3          4          5          6
     1  S   16.309223  -0.249725  -0.249725  -0.249725  -0.249725  -0.249725
     2  F   -0.249725   9.745553   0.008152   0.003086   0.008152   0.008152
     3  F   -0.249725   0.008152   9.745553   0.008152   0.003086   0.008152
     4  F   -0.249725   0.003086   0.008152   9.745553   0.008152   0.008152
     5  F   -0.249725   0.008152   0.003086   0.008152   9.745553   0.008152
     6  F   -0.249725   0.008152   0.008152   0.008152   0.008152   9.745553
     7  F   -0.249725   0.008152   0.008152   0.008152   0.008152   0.003086
               7
     1  S   -0.249725
     2  F    0.008152
     3  F    0.008152
     4  F    0.008152
     5  F    0.008152
     6  F    0.003086
     7  F    9.745553
 Mulliken charges:
               1
     1  S    1.189130
     2  F   -0.531522
     3  F   -0.531522
     4  F   -0.531522
     5  F   -0.531522
     6  F   -0.531522
     7  F   -0.531522
 Sum of Mulliken charges =  -2.00000
 Mulliken charges with hydrogens summed into heavy atoms:
               1
     1  S    1.189130
     2  F   -0.531522
     3  F   -0.531522
     4  F   -0.531522
     5  F   -0.531522
     6  F   -0.531522
     7  F   -0.531522
 Electronic spatial extent (au):  <R**2>=            614.3121
 Charge=             -2.0000 electrons
 Dipole moment (field-independent basis, Debye):
    X=              0.0000    Y=              0.0000    Z=             -0.0000  Tot=              0.0000
 Quadrupole moment (field-independent basis, Debye-Ang):
   XX=            -54.0720   YY=            -54.0720   ZZ=            -54.0720
   XY=             -0.0000   XZ=             -0.0000   YZ=              0.0000
 Traceless Quadrupole moment (field-independent basis, Debye-Ang):
   XX=             -0.0000   YY=              0.0000   ZZ=             -0.0000
   XY=             -0.0000   XZ=             -0.0000   YZ=              0.0000
 Octapole moment (field-independent basis, Debye-Ang**2):
  XXX=              0.0000  YYY=              0.0000  ZZZ=             -0.0000  XYY=              0.0000
  XXY=             -0.0000  XXZ=              0.0000  XZZ=              0.0000  YZZ=             -0.0000
  YYZ=              0.0000  XYZ=              0.0000
 Hexadecapole moment (field-independent basis, Debye-Ang**3):
 XXXX=           -221.1555 YYYY=           -221.1555 ZZZZ=           -221.1555 XXXY=             -0.0000
 XXXZ=             -0.0000 YYYX=             -0.0000 YYYZ=              0.0000 ZZZX=             -0.0000
 ZZZY=              0.0000 XXYY=            -62.6497 XXZZ=            -62.6497 YYZZ=            -62.6497
 XXYZ=             -0.0000 YYXZ=             -0.0000 ZZXY=             -0.0000
 N-N= 5.532324529864D+02 E-N=-3.523482053915D+03  KE= 9.972229255412D+02
 1\1\GINC-LOCALHOST\Stability\RB3LYP\6-31G(d)\F6S1(2-)\ROOT\04-Feb-2021
 \0\\# B3LYP/6-31g(d) NoSymm 5D Stable=Opt\\Single point of SF6^-2 at t
 heUB3LYP/6-31G(d) level of theory\\-2,1\S,0,0.,0.,0.\F,0,0.,0.,1.60007
 2\F,0,0.,1.600072,0.\F,0,0.,0.,-1.600072\F,0,0.,-1.600072,0.\F,0,1.600
 072,0.,0.\F,0,-1.600072,0.,0.\\Version=ES64L-G09RevE.01\HF=-996.741491
 8\RMSD=8.037e-09\Dipole=0.,0.,0.\Quadrupole=0.,0.,0.,0.,0.,0.\PG=OH [O
 (S1),3C4(F1.F1)]\\@


 IF AT FIRST YOU DON'T SUCCEED, TRY, TRY AGAIN.
 THEN GIVE UP;
 THERE'S NO USE BEING A DAMN FOOL ABOUT IT.

                                 -- W. C. FIELDS
 Job cpu time:       0 days  0 hours  2 minutes 33.1 seconds.
 File lengths (MBytes):  RWF=     39 Int=      0 D2E=      0 Chk=      5 Scr=      1
 Normal termination of Gaussian 09 at Thu Feb  4 14:24:54 2021.
